<?xml version="1.0"?>
<VTKFile type="PolyData" version="0.1" byte_order="LittleEndian" compressor="vtkZLibDataCompressor">
  <PolyData>
    <Piece NumberOfPoints="1071" NumberOfVerts="0" NumberOfLines="0" NumberOfStrips="0" NumberOfPolys="2000">
      <PointData>
        <DataArray type="Float32" Name="PRESSURE" format="ascii" RangeMin="-5.5524077415" RangeMax="4.3937387466">
          0 -0.047833751887 0 -0.089222364128 0 -0.14048817754
          -0.18863214552 -0.083413623273 -0.18055696785 0 -0.24337333441 -0.29021966457
          -0.083202332258 -0.16825415194 -0.28383952379 0 -0.35400959849 -0.40089282393
          -0.091441236436 -0.26430076361 -0.39677521586 -0.17479628325 -0.37608194351 0
          -0.47386485338 -0.26958045363 -0.080007448792 -0.52208358049 -0.52148836851 -0.15755057335
          -0.38375833631 -0.50525099039 -0.24983556569 -0.6026340723 0 -0.069500692189
          -0.65265983343 -0.14289595187 -0.65675359964 -0.36597320437 -0.51923155785 -0.64904206991
          -0.23751808703 -0.73731285334 0 -0.50759226084 -0.78854632378 -0.071252711117
          -0.3604297936 -0.67121738195 -0.79761493206 -0.14671090245 -0.79982703924 -0.24474929273
          -0.51115906239 -0.66752356291 0 -0.87267702818 -0.37144604325 -0.92376703024
          -0.074715293944 -0.82901906967 -0.93689256907 -0.15464003384 -0.67932921648 -0.25274536014
          -0.94749540091 -0.83149027824 -0.5252854228 -0.37677744031 -0.97946488857 0
          -1.0027356148 -1.0519584417 -0.073727823794 -0.69397848845 -1.0672334433 -0.84696567059
          -0.15330937505 -0.5264069438 -0.98300772905 -1.0824798346 -0.24920302629 -1.1110936403
          -0.37053254247 -0.85720014572 0 -0.68882495165 -1.122150898 -0.99501997232
          -1.1678260565 -0.080276116729 -1.1829698086 -0.15413254499 -1.1090878248 -0.51730066538
          -1.1982827187 -0.24049331248 -0.84293955564 -0.99505478144 -0.35407826304 -1.2172758579
          -1.1105724573 -0.67564606667 -1.2272833586 0 -1.268098712 -0.073727823794
          -1.2811564207 -1.2038854361 -0.15330937505 -0.49763259292 -0.97010225058 -0.24920302629
          -1.0964922905 -1.2925424576 -0.82425743341 -0.65694206953 -1.1903487444 -0.37053254247
          -1.2970833778 0 -1.31658566 -0.074715293944 -1.0623922348 -1.3517540693
          -0.94639444351 -1.2689205408 -0.51730066538 -0.15464003384 -1.361579895 -1.1617075205
          -0.80941271782 -0.25274536014 -1.3665651083 -1.2394121885 -0.67564606667 -0.37677744031
          -1.3541817665 -1.0366909504 -1.1228284836 -0.93744921684 0 -1.3903485537
          -0.5264069438 -1.3108640909 -1.1987708807 -0.071252711117 -1.4196041822 -0.82425743341
          -1.4260107279 -0.14671090245 -0.24474929273 -1.423977375 -0.68882495165 -1.2674771547
          -1.035030365 -1.0993564129 -1.1603779793 -1.3949019909 -0.94639444351 -0.37144604325
          -1.2189406157 -0.84293955564 -1.3388664722 -0.5252854228 0 -1.4500154257
          -1.4735147953 -0.069500692189 -1.1052391529 -0.14289595187 -1.4771530628 -1.0366909504
          -1.1425545216 -0.23751808703 -0.69397848845 -1.469255805 -1.2858054638 -0.97010225058
          -1.1853334904 -0.3604297936 -1.4264844656 -1.2340185642 -0.85720014572 -1.0993564129
          -1.3626503944 -0.51115906239 -1.1542823315 -1.0623922348 0 -1.4973509312
          -1.1743612289 -1.5155502558 -0.080007448792 -1.5176413059 -0.15755057335 -0.67932921648
          -1.3057425022 -0.99505478144 -1.2077591419 -0.24983556569 -1.5065199137 -0.36597320437
          -1.4557403326 -1.1425545216 -1.1228284836 -1.1876549721 -1.2559649944 -0.84696567059
          -1.0964922905 -1.3912408352 -0.50759226084 -1.2023285627 0 -1.5336996317
          -0.091441236436 -1.5472450256 -0.17479628325 -0.99501997232 -1.2383230925 -1.5492305756
          -1.3379894495 -0.66752356291 -1.1603779793 -0.26958045363 -1.538574338 -1.1743612289
          -1.1617075205 -1.2107870579 -1.4877719879 -0.38375833631 -1.2967966795 -0.83149027824
          -1.1105724573 -1.2355949879 -1.4314545393 -0.51923155785 -1.1853334904 -1.2887431383
          -1.5595002174 -0.98300772905 0 -1.2023285627 -1.1987708807 -0.083202332258
          -1.5691246986 -0.67121738195 -1.3909313679 -0.16825415194 -1.5722278357 -1.1903487444
          -1.232862711 -1.5660840273 -0.26430076361 -0.82901906967 -0.37608194351 -1.5244505405
          -1.3660978079 -1.1090878248 -1.2859276533 -1.2189406157 -1.2077591419 -0.50525099039
          -1.4855878353 -1.2394121885 -1.2355949879 -1.3682911396 -0.97946488857 -1.5741692781
          0 -0.64904206991 -1.580593586 -1.4669654369 -1.2038854361 -0.083413623273
          -1.2686917782 -0.18055696785 -1.5852839947 -1.5870329142 -0.28383952379 -1.1110936403
          -1.3631507158 -1.2340185642 -1.4648933411 -0.79982703924 -1.2383230925 -0.39677521586
          -1.2674771547 -1.56300807 -1.2859276533 -1.2689205408 -1.5489051342 -0.52148836851
          -1.4755334854 -0.94749540091 -1.2172758579 -1.3326265812 -0.65675359964 -1.5579844713
          0 -1.5764448643 -0.089222364128 -1.5803146362 -1.2559649944 -1.5857897997
          -0.18863214552 -1.2858054638 -1.3108640909 -1.2887431383 -1.0824798346 -0.29021966457
          -1.5969734192 -1.4650708437 -0.79761493206 -1.5790821314 -1.3631507158 -0.40089282393
          -1.2970833778 -1.5958182812 -1.6088008881 -0.52208358049 -1.5914334059 -0.93689256907
          -1.1982827187 -1.4257762432 -1.3057425022 -1.2967966795 -1.3388664722 -1.6439664364
          -0.65265983343 -1.3682911396 -1.5652091503 -1.3541817665 0 -0.047833751887
          -1.5671344995 -0.14048817754 -1.571059227 -1.0672334433 -1.5710126162 -0.24337333441
          -1.5905458927 -0.78854632378 -1.4650708437 -1.679800868 -1.2925424576 -0.35400959849
          -1.6123739481 -1.3379894495 -1.3626503944 -1.1829698086 -1.5287030935 -0.92376703024
          -1.6476340294 -1.6835329533 -1.3949019909 -1.3660978079 -0.47386485338 -1.4755334854
          -1.3665651083 -0.6026340723 -1.6986371279 -1.5406591892 -1.5413947105 -1.0519584417
          -1.6494823694 -1.5401393175 -1.2811564207 -1.5710126162 -1.7349691391 -0.73731285334
          -1.3912408352 -1.5641355515 -1.3909313679 -1.4264844656 -1.6033636332 -1.4648933411
          -1.423977375 -1.6106932163 -1.1678260565 -0.87267702818 -1.7226747274 -1.649387002
          -1.361579895 -1.5914334059 -1.7012443542 -1.6774491072 -1.0027356148 -1.4314545393
          -1.4557403326 -1.6494823694 -1.268098712 -1.5054950714 -1.5062100887 -1.469255805
          -1.4669654369 -1.4956331253 -1.7261232138 -1.5790821314 -1.5187141895 -1.4260107279
          -1.5653458834 -1.6499825716 -1.122150898 -1.3517540693 -1.7003978491 -1.6835329533
          -1.6074867249 -1.4877719879 -1.5065199137 -1.4855878353 -1.647678256 -1.5579844713
          -1.4771530628 -1.6774491072 -1.2272833586 -1.6551259756 -1.4656890631 -1.4196041822
          -1.679800868 -1.4681911469 -1.4447522163 -1.6586310863 -1.4616088867 -1.6465439796
          -1.31658566 -1.7226747274 -1.5039891005 -1.5244505405 -1.538574338 -1.6330449581
          -1.5176413059 -1.5489051342 -1.5298345089 -1.6439664364 -1.4735147953 -1.6551259756
          -1.554019928 -1.6032831669 -1.3903485537 -1.7349691391 -1.4304646254 -1.4372355938
          -1.5587955713 -1.5660840273 -1.3990809917 -1.56300807 -1.5492305756 -1.6164370775
          -1.4063925743 -1.7003978491 -1.6088008881 -1.5155502558 -1.4345462322 -1.550579071
          -1.6986371279 -1.4500154257 -1.4385663271 -1.6032831669 -1.7261232138 -1.5470033884
          -1.4512919188 -1.5722278357 -1.5870329142 -1.5958182812 -1.5472450256 -1.4619108438
          -1.4113436937 -1.4973509312 -1.6476340294 -1.4253275394 -1.6330449581 -1.5760540962
          -1.3730251789 -1.3708751202 -1.7012443542 -1.4812755585 -1.379434824 -1.5852839947
          -1.5470033884 -1.3648042679 -1.5969734192 -1.5691246986 -1.6586310863 -1.6123739481
          -1.5336996317 -1.5027557611 -1.3756196499 -1.649387002 -1.550579071 -1.4007080793
          -1.4203754663 -1.5349155664 -1.4445655346 -1.647678256 -1.3812987804 -1.3737156391
          -1.5857897997 -1.580593586 -1.4452611208 -1.5905458927 -1.5595002174 -1.3635517359
          -1.6033636332 -1.5027557611 -1.5587955713 -1.3404939175 -1.4806582928 -1.6074867249
          -1.3587955236 -1.4812755585 -1.5803146362 -1.571059227 -1.5741692781 -1.399905324
          -1.5039010048 -1.554019928 -1.4678604603 -1.5641355515 -1.5047916174 -1.435956955
          -1.4303598404 -1.4578886032 -1.5653458834 -1.4082460403 -1.4619108438 -1.4806582928
          -1.3898806572 -1.5298345089 -1.4939379692 -1.5671344995 -1.5764448643 -1.5401393175
          -1.4213962555 -1.4452611208 -1.4512919188 -1.5187141895 -1.5034189224 -1.4741612673
          -1.5599843264 -1.6112505198 -1.5039891005 -1.5435500145 -1.5313524008 -1.5491815805
          -1.4007080793 -1.4939379692 -1.5254303217 -1.5652091503 -1.4385663271 -1.5413947105
          -1.4956331253 -1.5230945349 -1.558100462 -1.4616088867 -1.4578886032 -1.5683418512
          -1.3756196499 -1.5548380613 -1.4345462322 -1.624699831 -1.5406591892 -1.6967936754
          -1.7626913786 -1.399905324 -1.7029858828 -1.5062100887 -1.6685162783 -1.3648042679
          -1.558100462 -1.7288876772 -1.4447522163 -1.7139610052 -1.4063925743 -1.6792439222
          -1.7338466644 -1.3587955236 -1.5313524008 -1.7877446413 -1.379434824 -1.6639426947
          -1.5054950714 -1.4681911469 -1.8373061419 -1.4741612673 -1.8708794117 -1.3990809917
          -1.3404939175 -1.9502226114 -1.9044852257 -1.6792439222 -1.8578761816 -1.9577976465
          -1.3708751202 -1.9594171047 -1.8473517895 -1.4213962555 -2.0013649464 -1.6685162783
          -1.4656890631 -1.3635517359 -2.0540261269 -1.4372355938 -1.8171325922 -2.0855920315
          -1.3730251789 -1.624699831 -1.3898806572 -2.066975832 -1.8473517895 -2.157027483
          -2.0758037567 -2.1294913292 -1.3737156391 -2.2142887115 -1.4304646254 -2.2355959415
          -1.5683418512 -2.0398404598 -1.4082460403 -1.8578761816 -2.2933366299 -1.4253275394
          -2.3314805031 -1.9909703732 -1.3812987804 -1.5230945349 -2.3340988159 -1.8373061419
          -1.4303598404 -2.0398404598 -2.2625894547 -2.28916502 -2.3589646816 -1.4113436937
          -2.3511285782 -2.467017889 -1.7877446413 -1.4445655346 -2.5048780441 -1.5254303217
          -2.225675106 -2.0758037567 -2.5659799576 -1.435956955 -2.5737121105 -2.1586785316
          -1.7338466644 -2.0855920315 -2.536993742 -1.5491815805 -1.4203754663 -2.225675106
          -2.4553339481 -2.4299340248 -1.5047916174 -2.526422739 -2.535572052 -2.0540261269
          -1.7139610052 -2.6753363609 -2.28916502 -2.3665935993 -2.7182307243 -1.5435500145
          -2.7639715672 -2.2885077 -2.0013649464 -2.7252242565 -1.4678604603 -2.3340988159
          -1.7288876772 -2.6429457664 -1.6112505198 -2.3665935993 -2.5305166245 -1.9594171047
          -2.5397593975 -2.6283810139 -2.3314805031 -2.6461753845 -1.7029858828 -2.7934820652
          -2.4553339481 -2.4252445698 -2.8212175369 -2.8305687904 -1.5599843264 -2.2933366299
          -2.3477921486 -1.9577976465 -2.7379555702 -2.536993742 -1.7626913786 -2.6174075603
          -2.4252445698 -2.2355959415 -2.5737121105 -2.4924132824 -1.9044852257 -2.5675384998
          -2.6395184994 -2.6523652077 -2.5305166245 -2.7825264931 -2.3845462799 -2.7718405724
          -1.6967936754 -2.5659799576 -2.2142887115 -2.7324273586 -2.3212268353 -2.6429457664
          -1.9502226114 -2.5995006561 -2.4685173035 -2.3845462799 -2.5048780441 -2.1294913292
          -2.7252242565 -2.3584344387 -2.5012557507 -2.5494675636 -2.5423414707 -1.8708794117
          -2.4924132824 -2.6288166046 -2.2622592449 -2.5653040409 -2.467017889 -2.7639715672
          -2.4848864079 -2.157027483 -2.6174075603 -2.2278089523 -2.3478410244 -2.2465472221
          -2.7182307243 -2.2622592449 -2.3511285782 -2.7379555702 -2.1756014824 -2.066975832
          -2.3480362892 -2.3584344387 -2.3704071045 -2.3337106705 -2.1035890579 -2.3596615791
          -2.6753363609 -2.8305687904 -2.2489597797 -2.3589646816 -2.1553337574 -2.4685173035
          -2.1125664711 -2.0555651188 -2.8212175369 -2.535572052 -2.1035890579 -2.0137078762
          -2.5995006561 -2.2625894547 -1.9915884733 -2.1756014824 -2.1355149746 -2.7934820652
          -2.1374545097 -2.0737137794 -1.9544901848 -2.7324273586 -2.526422739 -2.0432012081
          -1.9122697115 -2.2465472221 -2.0048866272 -1.8389233351 -1.7983440161 -2.6461753845
          -2.7718405724 -2.4299340248 -1.9544901848 -2.3478410244 -1.8156071901 -1.8340771198
          -1.9915884733 -2.7825264931 -2.6283810139 -2.4848864079 -1.9048422575 -1.8983110189
          -1.8286217451 -1.8243261576 -1.7650892735 -1.6523815393 -2.0137078762 -1.8775817156
          -1.620904088 -2.6523652077 -2.5653040409 -2.5397593975 -1.6280324459 -1.8286217451
          -2.0555651188 -1.6727256775 -1.7076197863 -2.6288166046 -2.6395184994 -1.8340771198
          -2.1553337574 -1.6960194111 -1.6945216656 -1.7097241879 -1.6362042427 -1.5895953178
          -1.8156071901 -1.5303351879 -2.5423414707 -1.7004410028 -2.5675384998 -1.5392810106
          -2.2489597797 -1.5553290844 -1.7983440161 -1.7097241879 -1.5917268991 -2.5494675636
          -2.3596615791 -1.6290531158 -1.7076197863 -1.8389233351 -1.6311582327 -1.5312821865
          -1.543186903 -1.5239397287 -1.5260783434 -1.6727256775 -2.3337106705 -2.5012557507
          -1.53697896 -1.9122697115 -1.5659301281 -1.562646389 -1.5562998056 -1.6280324459
          -1.6311582327 -1.5940573215 -2.3704071045 -2.0432012081 -1.6290531158 -1.6618680954
          -1.620904088 -1.6790539026 -1.4052704573 -1.4297133684 -2.0737137794 -1.4571911097
          -1.5917268991 -2.3480362892 -1.519415617 -1.6523815393 -1.5896152258 -1.6085516214
          -1.6086845398 -1.5553290844 -1.5992447138 -1.6790539026 -2.1374545097 -1.7650892735
          -1.6951413155 -1.5392810106 -1.6618680954 -1.8130909204 -2.1355149746 -1.820928216
          -1.8243261576 -1.2888721228 -1.5940573215 -1.3170688152 -1.3749212027 -1.5303351879
          -1.4727307558 -1.7756810188 -1.5748276711 -1.6004327536 -1.5562998056 -1.8983110189
          -1.6514760256 -1.820928216 -1.5895953178 -1.8285161257 -1.562646389 -1.8130909204
          -1.9494134188 -1.9048422575 -1.6362042427 -1.9187322855 -1.6951413155 -1.1474633217
          -1.53697896 -1.1692191362 -1.2192790508 -1.3002531528 -1.9097813368 -1.4174895287
          -1.5992447138 -1.5165218115 -1.6945216656 -1.9187322855 -1.5260783434 -1.6873655319
          -1.89260602 -1.6086845398 -1.9494134188 -1.6960194111 -1.9664655924 -1.5239397287
          -1.9490429163 -1.8285161257 -1.5896152258 -0.96695244312 -0.97992002964 -0.9771078825
          -0.97919273376 -1.9655286074 -1.1054821014 -1.543186903 -1.6514760256 -1.3691020012
          -1.519415617 -1.9490429163 -1.6908591986 -1.6004327536 -1.8472883701 -1.9664655924
          -1.5312821865 -1.4571911097 -1.9004539251 -1.89260602 -1.5748276711 -1.9799896479
          -0.7759553194 -0.7940967083 -0.71967190504 -1.9912567139 -0.591129601 -1.4297133684
          -0.66115629673 -1.6873655319 -1.4727307558 -1.1084060669 -1.9799896479 -1.6024382114
          -1.5165218115 -1.4052704573 -1.7394315004 -1.9004539251 -1.3749212027 -1.8689858913
          -1.4174895287 -1.8472883701 -2.0832598209 -0.65348011255 -0.72373205423 -1.3170688152
          -0.69097179174 -2.0853815079 -0.47796317935 -1.6908591986 -0.17962755263 -1.3002531528
          -0.53335052729 -2.0832598209 -1.2317065001 -1.2888721228 -1.3691020012 -1.6039056778
          -1.2192790508 -1.8689858913 -1.9448418617 -1.1054821014 -1.7394315004 -2.3687422276
          -1.1692191362 -0.70638889074 -0.87237679958 -1.0000203848 -2.416759491 -1.6024382114
          -0.71737897396 -0.97919273376 0.41627949476 0.63085842133 -2.3687422276 -1.1474633217
          -0.52325898409 -1.1084060669 -0.9771078825 -1.7201102972 -1.9448418617 -2.3527953625
          -0.66115629673 -1.6039056778 -2.8690876961 -0.97992002964 -1.0119178295 -1.1826233864
          -2.9302592278 -1.2317065001 -1.9453477859 -0.591129601 -3.1101458073 -1.2090979815
          -2.8690876961 -0.96695244312 2.3882761002 -0.53335052729 2.0852093697 -0.71967190504
          -2.3527953625 -1.8863124847 -4.0594067574 -0.17962755263 -1.7201102972 -0.7940967083
          -3.8420431614 -0.47796317935 -1.3126301765 -0.52325898409 -1.8704122305 -3.4909451008
          -3.4592108727 -3.5307898521 -0.095651492476 -0.7759553194 -3.8420431614 4.3937387466
          0.63085842133 -0.69097179174 3.3069117069 -4.0594067574 -1.8390772343 0.41627949476
          -5.5524077415 -1.8863124847 -0.72373205423 -5.0486865044 -0.71737897396 2.0852093697
          -4.3444476128 -0.65348011255 -5.0486865044 2.3882761002 -1.0000203848 -5.5524077415
          -1.2090979815 -0.87237679958 -1.8390772343 -3.1101458073 3.3069117069 -0.70638889074
          -1.9453477859 4.3937387466 -0.095651492476 -1.1826233864 -3.5307898521 -1.0119178295
          -3.4592108727 -1.8704122305 -1.3126301765
        </DataArray>
        <DataArray type="Float32" Name="VELOCITY" NumberOfComponents="3" ComponentName0="X-VELOCITY" ComponentName1="Y-VELOCITY" ComponentName2="Z-VELOCITY" format="ascii" RangeMin="0" RangeMax="7.9218764305">
          0 0 0 0 0 0
          3.596303463 0.037939444184 0 3.5098032951 0.043211150914 0
          2.745105505 0.12825852633 0 0 0 0
          3.4274234772 0.039468489587 0 2.7006640434 0.11636856198 0
          2.6454246044 0.11704772711 0 3.7890117168 0.158386603 0
          0 0 0 3.3444421291 0.039184261113 0
          3.7870931625 0.14364790916 0 3.7924072742 0.14100092649 0
          2.5869181156 0.11900956929 0 4.6696648598 0.14255642891 0
          0 0 0 3.2610161304 0.039601504803 0
          4.7012820244 0.12381272018 0 3.7997877598 0.14334113896 0
          2.5251526833 0.12218825519 0 4.7293009758 0.12165186554 0
          3.8067982197 0.14744964242 0 5.3522086143 0.10185778141 0
          0 0 0 4.7518424988 0.12686820328 0
          5.4036693573 0.0851296857 0 3.1758213043 0.040463805199 0
          2.4611592293 0.12550210953 0 5.4469432831 0.08989212662 0
          4.7664852142 0.1361566782 0 3.8118124008 0.15182580054 0
          5.4781069756 0.10505447537 0 0 0 0
          5.979642868 0.043003741652 0 6.0357866287 0.033640705049 0
          3.0885989666 0.041156146675 0 6.0771636963 0.052469655871 0
          2.396099329 0.12753172219 0 5.4941263199 0.12652416527 0
          4.7718887329 0.14628143609 0 3.8147640228 0.15397191048 0
          6.0966253281 0.086707524955 0 0 0 0
          6.5361280441 -0.012711824849 0 5.495724678 0.14755637944 0
          3.0002310276 0.041136570275 0 6.5606794357 -0.00130765012 0
          6.0934138298 0.12705290318 0 4.7694678307 0.15276069939 0
          2.3317666054 0.12702868879 0 6.564450264 0.040447439998 0
          3.8167779446 0.15207123756 0 6.5472345352 0.097849063575 0
          6.0752482414 0.15988914669 0 5.4887757301 0.15974256396 0
          6.8543772697 -0.028725737706 0 0 0 0
          6.5181207657 0.15255223215 0 2.912378788 0.040178928524 0
          6.8413305283 0.0028276524972 0 4.7633333206 0.15215682983 0
          2.2702095509 0.12343935668 0 6.8220825195 0.059064932168 0
          6.0559368134 0.17188672721 0 6.8079390526 0.12076796591 0
          3.8197479248 0.1453358978 0 5.4828901291 0.15713949502 0
          6.4924483299 0.18459437788 0 6.8112177849 0.16578616202 0
          4.7591180801 0.14299406111 0 6.9078278542 -0.010082770139 0
          0 0 0 2.8270425797 0.038281131536 0
          6.8947014809 0.01703707315 0 6.4848270416 0.18084837496 0
          2.2134094238 0.11679218709 0 6.0496864319 0.15702690184 0
          6.9067430496 0.057372294366 0 6.8393015862 0.17665785551 0
          5.4876933098 0.13866780698 0 3.8256831169 0.13403363526 0
          6.9535207748 0.093634180725 0 4.7619929314 0.12614792585 0
          7.0323867798 0.11156368256 0 6.5022106171 0.14216643572 0
          6.8707003593 6.2119355002e-015 0 6.8901200294 0.14880898595 0
          0 0 0 6.0650119781 0.11918722838 0
          2.7461996078 0.03559204191 0 6.8845615387 2.2305066831e-015 0
          2.1629450321 0.10755253583 0 6.9430618286 1.6620598017e-015 0
          5.5089945793 0.10828322917 0 7.1286487579 0.10379283875 0
          3.8359975815 0.11924239248 0 7.0426354408 1.1322845271e-015 0
          6.9526104927 0.092756815255 0 6.5414891243 0.081957601011 0
          7.1638903618 7.0136583258e-016 0 4.7749705315 0.10426975042 0
          6.1019310951 0.06947221607 0 7.2206192017 0.073271475732 0
          0 0 0 6.9078278542 0.010082770139 0
          2.6715629101 0.032314766198 0 6.8947014809 -0.01703707315 0
          2.1198203564 0.096359059215 0 5.5470428467 0.07280998677 0
          6.9067430496 -0.057372294366 0 7.2783994675 -1.6722218677e-015 0
          7.0121102333 0.027526084334 0 6.9535207748 -0.093634180725 0
          6.5923089981 0.018711658195 0 3.8510785103 0.10234694928 0
          7.2884340286 0.03114746511 0 7.3601961136 -4.4853113533e-015 0
          6.1532583237 0.02081750147 0 7.0323867798 -0.11156368256 0
          4.7982349396 0.080600947142 0 6.8543772697 0.028725737706 0
          0 0 0 6.8413305283 -0.0028276524972 0
          7.056552887 -0.028434323147 0 2.6045012474 0.028619946912 0
          7.321313858 -0.0094061931595 0 5.5971083641 0.039193343371 0
          7.1286487579 -0.10379283875 0 6.8220825195 -0.059064932168 0
          2.0844843388 0.083789415658 0 6.6420764923 -0.031472947448 0
          7.3954153061 -4.2363476178e-015 0 6.8079390526 -0.12076796591 0
          3.8702542782 0.084568917751 0 6.2078771591 -0.016201751307 0
          7.2206192017 -0.073271475732 0 6.8112177849 -0.16578616202 0
          4.8294196129 0.057956315577 0 7.3196201324 -0.038355764002 0
          7.0798230171 -0.06270300597 0 7.385011673 -2.1458239289e-015 0
          6.5361280441 0.012711824849 0 0 0 0
          6.8393015862 -0.17665785551 0 5.651134491 0.012846939266 0
          6.6797480583 -0.058219004422 0 6.5606794357 0.00130765012 0
          2.5460715294 0.024608453736 0 7.2884340286 -0.03114746511 0
          2.0569832325 0.070252075791 0 6.564450264 -0.040447439998 0
          6.5472345352 -0.097849063575 0 3.8920397758 0.066733658314 0
          6.8901200294 -0.14880898595 0 6.2536125183 -0.034705948085 0
          7.3414134979 -8.2971932911e-016 0 7.2924165726 -0.050410851836 0
          7.0817427635 -0.069380611181 0 4.8642525673 0.038311999291 0
          7.321313858 0.0094061931595 0 6.5181207657 -0.15255223215 0
          6.6974053383 -0.056531790644 0 6.9526104927 -0.092756815255 0
          5.6992592812 -0.0026412135921 0 6.4924483299 -0.18459437788 0
          5.979642868 -0.043003741652 0 0 0 0
          2.4970841408 0.020326031372 0 6.0357866287 -0.033640705049 0
          7.2831497192 -4.9334807208e-015 0 6.0771636963 -0.052469655871 0
          2.03713727 0.056013744324 0 7.3196201324 0.038355764002 0
          7.2535438538 -0.044034745544 0 6.0966253281 -0.086707524955 0
          6.4848270416 -0.18084837496 0 3.9144563675 0.049293864518 0
          6.2790307999 -0.031136535108 0 7.0121102333 -0.027526084334 0
          7.0665268898 -0.047408297658 0 6.0934138298 -0.12705290318 0
          4.8971395493 0.022875918075 0 6.6907639503 -0.0258208327 0
          6.5022106171 -0.14216643572 0 7.2924165726 0.050410851836 0
          5.7310218811 -0.0053246505558 0 6.0752482414 -0.15988914669 0
          7.2305531502 -9.5051504712e-015 0 7.056552887 0.028434323147 0
          5.3522086143 -0.10185778141 0 0 0 0
          7.2184691429 -0.020272260532 0 2.4581325054 0.015809932724 0
          5.4036693573 -0.0851296857 0 2.0246734619 0.041308790445 0
          5.4469432831 -0.08989212662 0 6.0559368134 -0.17188672721 0
          6.2750458717 -0.0052330913022 0 6.5414891243 -0.081957601011 0
          7.0415334702 5.943737051e-005 0 5.4781069756 -0.10505447537 0
          3.9353182316 0.032486204058 0 5.4941263199 -0.12652416527 0
          4.9217352867 0.012224796228 0 7.2535438538 0.044034745544 0
          7.0798230171 0.06270300597 0 7.2029361725 -1.0443760386e-014 0
          6.6601090431 0.029431927949 0 6.0496864319 -0.15702690184 0
          6.5923089981 -0.018711658195 0 5.736931324 0.00480761379 0
          5.495724678 -0.14755637944 0 7.2020974159 0.017069701105 0
          4.6696648598 -0.14255642891 0 0 0 0
          4.7012820244 -0.12381272018 0 2.4295508862 0.011141620576 0
          4.7293009758 -0.12165186554 0 6.0650119781 -0.11918722838 0
          7.0167050362 0.064278505743 0 2.0192930698 0.026460641995 0
          6.2373757362 0.038699816912 0 5.4887757301 -0.15974256396 0
          7.0817427635 0.069380611181 0 4.7518424988 -0.12686820328 0
          3.9525177479 0.016479732469 0 7.2184691429 0.020272260532 0
          6.6420764923 0.031472947448 0 7.2157583237 -7.6193146234e-015 0
          4.931871891 0.0062143984251 0 4.7664852142 -0.1361566782 0
          6.611872673 0.097722060978 0 5.4828901291 -0.15713949502 0
          6.1019310951 -0.06947221607 0 7.2164134979 0.060231931508 0
          5.7109861374 0.024930680171 0 4.7718887329 -0.14628143609 0
          7.0665268898 0.047408297658 0 7.0036625862 0.12946082652 0
          0 0 0 5.4876933098 -0.13866780698 0
          3.7890117168 -0.158386603 0 7.2020974159 -0.017069701105 0
          6.6797480583 0.058219004422 0 3.7870931625 -0.14364790916 0
          2.4113063812 0.0064878659323 0 4.7694678307 -0.15276069939 0
          6.169631958 0.090310789645 0 3.7924072742 -0.14100092649 0
          2.0206906796 0.011969816871 0 6.1532583237 -0.02081750147 0
          7.276465416 -4.803166396e-015 0 3.9643912315 0.0014603325399 0
          3.7997877598 -0.14334113896 0 4.7633333206 -0.15215682983 0
          3.8067982197 -0.14744964242 0 4.9230623245 0.0037451446988 0
          6.5593757629 0.16010190547 0 5.5089945793 -0.10828322917 0
          7.2670407295 0.097228586674 0 6.6974053383 0.056531790644 0
          7.0415334702 -5.943737051e-005 0 3.8118124008 -0.15182580054 0
          5.6537165642 0.048789821565 0 6.2078771591 0.016201751307 0
          7.2164134979 -0.060231931508 0 7.01313591 0.17457690835 0
          4.7591180801 -0.14299406111 0 0 0 0
          2.745105505 -0.12825852633 0 3.8147640228 -0.15397191048 0
          2.4028530121 0.0021241379436 0 6.0851626396 0.13389328122 0
          5.5470428467 -0.07280998677 0 2.7006640434 -0.11636856198 0
          7.3797006607 -3.6583873917e-015 0 2.6454246044 -0.11704772711 0
          2.0285456181 -0.0014423715184 0 3.9701666832 -0.012304265983 0
          2.5869181156 -0.11900956929 0 4.7619929314 -0.12614792585 0
          7.3494515419 0.11449338496 0 6.6907639503 0.0258208327 0
          6.5206537247 0.19425266981 0 3.8167779446 -0.15207123756 0
          7.0167050362 -0.064278505743 0 2.5251526833 -0.12218825519 0
          6.2536125183 0.034705948085 0 4.8942508698 0.0027868242469 0
          7.2670407295 -0.097228586674 0 5.5971083641 -0.039193343371 0
          5.5741224289 0.06769309938 0 2.4611592293 -0.12550210953 0
          7.0506982803 0.18006891012 0 3.8197479248 -0.1453358978 0
          4.7749705315 -0.10426975042 0 7.5050196648 -4.9121672543e-015 0
          2.396099329 -0.12753172219 0 6.0052938461 0.15281246603 0
          3.596303463 -0.037939444184 0 0 0 0
          3.5098032951 -0.043211150914 0 2.4029779434 -0.0015615129378 0
          6.6601090431 -0.029431927949 0 2.0424711704 -0.012830678374 0
          3.4274234772 -0.039468489587 0 6.2790307999 0.031136535108 0
          5.651134491 -0.012846939266 0 7.0036625862 -0.12946082652 0
          3.8256831169 -0.13403363526 0 3.3444421291 -0.039184261113 0
          3.9703125954 -0.024347133934 0 7.4473490715 0.10233454406 0
          2.3317666054 -0.12702868879 0 6.5128164291 0.18292097747 0
          7.3494515419 -0.11449338496 0 3.2610161304 -0.039601504803 0
          4.7982349396 -0.080600947142 0 4.8489046097 0.0010244429577 0
          5.4886889458 0.073456980288 0 3.1758213043 -0.040463805199 0
          7.1128649712 0.13686093688 0 2.2702095509 -0.12343935668 0
          3.8359975815 -0.11924239248 0 7.6205282211 -2.4710794918e-017 0
          6.2750458717 0.0052330913022 0 6.611872673 -0.097722060978 0
          5.6992592812 0.0026412135921 0 5.9533734322 0.13631559908 0
          3.0885989666 -0.041156146675 0 7.01313591 -0.17457690835 0
          0 0 0 4.8294196129 -0.057956315577 0
          0 0 0 0 0 0
          2.4096713066 -0.0040900004096 0 0 0 0
          2.0619065762 -0.021070603281 0 2.2134094238 -0.11679218709 0
          7.5357551575 0.060167916119 0 0 0 0
          3.9665265083 -0.03383750096 0 3.0002310276 -0.041136570275 0
          7.4473490715 -0.10233454406 0 6.5451793671 0.12238773704 0
          3.8510785103 -0.10234694928 0 0 0 0
          4.794585228 -0.0029944078997 0 6.2373757362 -0.038699816912 0
          5.7310218811 0.0053246505558 0 2.1629450321 -0.10755253583 0
          7.6926498413 4.5323229524e-015 0 2.912378788 -0.040178928524 0
          5.4171233177 0.061989955604 0 7.1864748001 0.052061129361 0
          4.8642525673 -0.038311999291 0 6.5593757629 -0.16010190547 0
          0 0 0 7.0506982803 -0.18006891012 0
          3.8702542782 -0.084568917751 0 0 0 0
          5.94688797 0.084873169661 0 0 0 0
          2.4200587273 -0.0049473233521 0 2.8270425797 -0.038281131536 0
          7.5887565613 -0.0020564333536 0 2.0859472752 -0.024972707033 0
          2.1198203564 -0.096359059215 0 7.5357551575 -0.060167916119 0
          6.614841938 0.025664804503 0 0 0 0
          5.736931324 -0.00480761379 0 3.9612190723 -0.03948970139 0
          6.169631958 -0.090310789645 0 4.8971395493 -0.022875918075 0
          4.7409343719 -0.008872536011 0 6.5206537247 -0.19425266981 0
          3.8920397758 -0.066733658314 0 7.6979222298 8.0252492341e-015 0
          2.7461996078 -0.03559204191 0 0 0 0
          7.2524242401 -0.052325181663 0 5.3764953613 0.035376038402 0