<?xml version="1.0"?>
<VTKFile type="PolyData" version="0.1" byte_order="LittleEndian" compressor="vtkZLibDataCompressor">
  <PolyData>
    <Piece NumberOfPoints="1071" NumberOfVerts="0" NumberOfLines="0" NumberOfStrips="0" NumberOfPolys="2000">
      <PointData>
        <DataArray type="Float32" Name="PRESSURE" format="ascii" RangeMin="-5.1424646378" RangeMax="0">
          0 -0.072232328355 0 -0.12710218132 0 -0.20773945749
          -0.26819705963 -0.12314275652 -0.26860147715 0 -0.35212260485 -0.41068351269
          -0.12890183926 -0.26806533337 -0.41713517904 0 -0.50267547369 -0.56063514948
          -0.14266821742 -0.41318419576 -0.57168567181 -0.27874341607 -0.5693398118 0
          -0.6587381959 -0.42313632369 -0.13686180115 -0.71726363897 -0.73288190365 -0.26782688498
          -0.58466666937 -0.7369453311 -0.41314712167 -0.81830412149 0 -0.12392718345
          -0.87751287222 -0.25097063184 -0.89751976728 -0.58247190714 -0.7628532052 -0.91046518087
          -0.40045529604 -0.97709721327 0 -0.77278441191 -1.0362015963 -0.11315780133
          -0.57941132784 -0.94862926006 -1.0594623089 -0.23838919401 -1.0802435875 -0.39158943295
          -0.7815323472 -0.97052186728 0 -1.1299287081 -0.57661747932 -1.1877354383
          -0.11215139925 -1.1282171011 -1.2120245695 -0.23768652976 -0.98884421587 -0.38946765661
          -1.2365379333 -1.1575877666 -0.78446733952 -0.57159501314 -1.28901577 0
          -1.272493124 -1.3279364109 -0.11382341385 -0.99419057369 -1.3504554033 -1.1796115637
          -0.23611198366 -0.77475941181 -1.3189204931 -1.3731480837 -0.38265094161 -1.4239813089
          -0.55963265896 -1.1828218699 0 -0.97778469324 -1.4028486013 -1.3377304077
          -1.455380559 -0.11684586108 -1.4735012054 -0.22974261642 -1.447332859 -0.75736105442
          -1.4891662598 -0.36631187797 -1.1591714621 -1.3357434273 -0.53764265776 -1.532997489
          -1.4576207399 -0.95441955328 -1.5221043825 0 -1.5718448162 -0.11382341385
          -1.5837391615 -1.5441944599 -0.23611198366 -0.73417180777 -1.3069292307 -0.38265094161
          -1.4501974583 -1.58882761 -1.1305505037 -0.93294638395 -1.5434772968 -0.55963265896
          -1.6219249964 0 -1.6341838837 -0.11215139925 -1.4204120636 -1.6818566322
          -1.2757148743 -1.6175786257 -0.75736105442 -0.23768652976 -1.6869058609 -1.5326668024
          -1.1130925417 -0.38946765661 -1.6802470684 -1.6061526537 -0.95441955328 -0.57159501314
          -1.7008070946 -1.3907524347 -1.5068243742 -1.2649308443 0 -1.744828701
          -0.77475941181 -1.6800923347 -1.5949603319 -0.11315780133 -1.7915620804 -1.1305505037
          -1.7905774117 -0.23838919401 -0.39158943295 -1.7736952305 -0.97778469324 -1.6605319977
          -1.3893927336 -1.4831745625 -1.576993227 -1.7820217609 -1.2757148743 -0.57661747932
          -1.6515001059 -1.1591714621 -1.7470306158 -0.78446733952 0 -1.8600873947
          -1.9071397781 -0.12392718345 -1.4923257828 -0.25097063184 -1.9024113417 -1.3907524347
          -1.5621404648 -0.40045529604 -0.99419057369 -1.8795217276 -1.7234737873 -1.3069292307
          -1.6423887014 -0.57941132784 -1.8781378269 -1.7174803019 -1.1828218699 -1.4831745625
          -1.8339586258 -0.7815323472 -1.5788180828 -1.4204120636 0 -1.9845421314
          -1.635417223 -2.0329730511 -0.13686180115 -2.0280499458 -0.26782688498 -0.98884421587
          -1.8110505342 -1.3357434273 -1.7142970562 -0.41314712167 -2.0055639744 -0.58247190714
          -1.9988940954 -1.5621404648 -1.5068243742 -1.6519099474 -1.8071990013 -1.1796115637
          -1.4501974583 -1.9527696371 -0.77278441191 -1.7107958794 0 -2.119566679
          -0.14266821742 -2.1698637009 -0.27874341607 -1.3377304077 -1.8049869537 -2.1689209938
          -1.9344633818 -0.97052186728 -1.576993227 -0.42313632369 -2.1541931629 -1.635417223
          -1.5326668024 -1.7179845572 -2.1473925114 -0.58466666937 -1.9314744473 -1.1575877666
          -1.4576207399 -1.8001873493 -2.1066529751 -0.7628532052 -1.6423887014 -1.9265116453
          -2.2620236874 -1.3189204931 0 -1.7107958794 -1.5949603319 -0.12890183926
          -2.3137364388 -0.94862926006 -2.0950956345 -0.26806533337 -2.3205223083 -1.5434772968
          -1.7930721045 -2.3198814392 -0.41318419576 -1.1282171011 -0.5693398118 -2.3168747425
          -2.0922150612 -1.447332859 -1.9177007675 -1.6515001059 -1.7142970562 -0.7369453311
          -2.2861731052 -1.6061526537 -1.8001873493 -2.082285881 -1.28901577 -2.4038858414
          0 -0.91046518087 -2.4553890228 -2.2804627419 -1.5441944599 -0.12314275652
          -1.8977230787 -0.26860147715 -2.4720122814 -2.488676548 -0.41713517904 -1.4239813089
          -2.0673308372 -1.7174803019 -2.275711298 -1.0802435875 -1.8049869537 -0.57168567181
          -1.6605319977 -2.4902479649 -1.9177007675 -1.6175786257 -2.4693834782 -0.73288190365
          -2.2571735382 -1.2365379333 -1.532997489 -2.039431572 -0.89751976728 -2.4645421505
          0 -2.5331597328 -0.12710218132 -2.5816960335 -1.8071990013 -2.6077435017
          -0.26819705963 -1.7234737873 -1.6800923347 -1.9265116453 -1.3731480837 -0.41068351269
          -2.6405677795 -2.2323703766 -1.0594623089 -2.4524233341 -2.0673308372 -0.56063514948
          -1.6219249964 -2.6436750889 -2.6273918152 -0.71726363897 -2.4195549488 -1.2120245695
          -1.4891662598 -2.2011153698 -1.8110505342 -1.9314744473 -1.7470306158 -2.6151716709
          -0.87751287222 -2.082285881 -2.6361336708 -1.7008070946 0 -0.072232328355
          -2.6782290936 -0.20773945749 -2.7106115818 -1.3504554033 -2.3814253807 -0.35212260485
          -2.7543067932 -1.0362015963 -2.2323703766 -2.5880773067 -1.58882761 -0.50267547369
          -2.7532126904 -1.9344633818 -1.8339586258 -1.4735012054 -2.3501381874 -1.1877354383
          -2.7334675789 -2.5371809006 -1.7820217609 -2.0922150612 -0.6587381959 -2.2571735382
          -1.6802470684 -0.81830412149 -2.7058198452 -2.7004868984 -2.7326927185 -1.3279364109
          -2.4865274429 -2.7662580013 -1.5837391615 -2.3814253807 -2.6589205265 -0.97709721327
          -1.9527696371 -2.8129136562 -2.0950956345 -1.8781378269 -2.8016047478 -2.275711298
          -1.7736952305 -2.4583411217 -1.455380559 -1.1299287081 -2.5928440094 -2.77125144
          -1.6869058609 -2.4195549488 -2.7245364189 -2.5361909866 -1.272493124 -2.1066529751
          -1.9988940954 -2.4865274429 -1.5718448162 -2.7184541225 -2.7382349968 -1.8795217276
          -2.2804627419 -2.7668220997 -2.6596632004 -2.4524233341 -2.8079295158 -1.7905774117
          -2.7825605869 -2.5145492554 -1.4028486013 -1.6818566322 -2.5882430077 -2.5371809006
          -2.7384228706 -2.1473925114 -2.0055639744 -2.2861731052 -2.6754457951 -2.4645421505
          -1.9024113417 -2.5361909866 -1.5221043825 -2.535490036 -2.6892104149 -1.7915620804
          -2.5880773067 -2.6957485676 -2.713275671 -2.6010665894 -2.7414879799 -2.5236549377
          -1.6341838837 -2.5928440094 -2.7017376423 -2.3168747425 -2.1541931629 -2.5378110409
          -2.0280499458 -2.4693834782 -2.6456346512 -2.6151716709 -1.9071397781 -2.535490036
          -2.5745956898 -2.4984951019 -1.744828701 -2.6589205265 -2.6198747158 -2.6145927906
          -2.5029261112 -2.3198814392 -2.6160032749 -2.4902479649 -2.1689209938 -2.4985949993
          -2.6263883114 -2.5882430077 -2.6273918152 -2.0329730511 -2.57548666 -2.4607076645
          -2.7058198452 -1.8600873947 -2.5133025646 -2.4984951019 -2.6596632004 -2.4409370422
          -2.4451198578 -2.3205223083 -2.488676548 -2.6436750889 -2.1698637009 -2.3888132572
          -2.5248651505 -1.9845421314 -2.7334675789 -2.5115494728 -2.5378110409 -2.4525420666
          -2.4936830997 -2.4847545624 -2.7245364189 -2.3762648106 -2.4287829399 -2.4720122814
          -2.4409370422 -2.3688075542 -2.6405677795 -2.3137364388 -2.6010665894 -2.7532126904
          -2.119566679 -2.376786232 -2.3148446083 -2.77125144 -2.4607076645 -2.2846362591
          -2.4236595631 -2.3949799538 -2.4081237316 -2.6754457951 -2.37058568 -2.345430851
          -2.6077435017 -2.4553890228 -2.3036935329 -2.7543067932 -2.2620236874 -2.2926735878
          -2.8016047478 -2.376786232 -2.5029261112 -2.2445530891 -2.3193457127 -2.7384228706
          -2.2158346176 -2.3762648106 -2.5816960335 -2.7106115818 -2.4038858414 -2.2192840576
          -2.3338241577 -2.5745956898 -2.3373074532 -2.8129136562 -2.3265943527 -2.2724161148
          -2.2396678925 -2.2646186352 -2.7825605869 -2.2002577782 -2.3888132572 -2.3193457127
          -2.1750967503 -2.6456346512 -2.286283493 -2.6782290936 -2.5331597328 -2.7662580013
          -2.1825239658 -2.3036935329 -2.4451198578 -2.8079295158 -2.2846758366 -2.2233183384
          -2.2843105793 -2.2854926586 -2.7017376423 -2.2210803032 -2.2846050262 -2.1947026253
          -2.2846362591 -2.286283493 -2.1800074577 -2.6361336708 -2.5133025646 -2.7326927185
          -2.7668220997 -2.1905851364 -2.3039262295 -2.7414879799 -2.2646186352 -2.2437384129
          -2.3148446083 -2.2796874046 -2.57548666 -2.3202638626 -2.7004868984 -2.2767136097
          -2.2954661846 -2.2192840576 -2.2293450832 -2.7382349968 -2.3858039379 -2.3688075542
          -2.3039262295 -2.2259874344 -2.713275671 -2.2466726303 -2.6263883114 -2.3985290527
          -2.3049058914 -2.2158346176 -2.2846050262 -2.4064443111 -2.4287829399 -2.3559131622
          -2.7184541225 -2.6957485676 -2.5084836483 -2.2233183384 -2.3173694611 -2.6160032749
          -2.2445530891 -2.3566048145 -2.2969613075 -2.3985290527 -2.5659074783 -2.3306577206
          -2.4847545624 -2.3924570084 -2.5684194565 -2.1825239658 -2.5018973351 -2.3858039379
          -2.6892104149 -2.2926735878 -2.6390001774 -2.6145927906 -2.5176854134 -2.7450156212
          -2.4936830997 -2.3202638626 -2.1750967503 -2.3993031979 -2.5684194565 -2.458255291
          -2.7793586254 -2.4099943638 -2.345430851 -2.4858789444 -2.6198747158 -2.583596468
          -2.2437384129 -2.7636015415 -2.2002577782 -2.5659074783 -2.730486393 -2.5115494728
          -2.8723680973 -2.713778019 -2.37058568 -2.1905851364 -2.9542963505 -2.5084836483
          -2.2396678925 -2.7636015415 -2.507805109 -2.9523351192 -2.5819735527 -2.5248651505
          -2.5445280075 -2.6545903683 -2.4064443111 -2.4081237316 -2.7680032253 -2.1800074577
          -2.9113030434 -2.7793586254 -2.920327425 -2.2724161148 -3.0299706459 -2.8707227707
          -2.3049058914 -2.7450156212 -3.0684149265 -2.1947026253 -2.4236595631 -2.9113030434
          -3.0319502354 -2.6251733303 -2.3265943527 -2.7073881626 -2.6744534969 -2.6390001774
          -2.2466726303 -2.7980368137 -2.9523351192 -2.9722704887 -2.8952395916 -2.2210803032
          -3.0150737762 -2.951772213 -2.5018973351 -3.0697596073 -2.3373074532 -2.9542963505
          -2.2259874344 -3.0692739487 -2.2854926586 -2.9722704887 -3.0223631859 -2.3924570084
          -2.73695755 -2.8194556236 -2.8723680973 -2.7811508179 -2.2293450832 -2.8910782337
          -3.0319502354 -2.9662363529 -2.9408853054 -3.0027279854 -2.2843105793 -2.730486393
          -2.9743402004 -2.3306577206 -3.006919384 -3.0684149265 -2.2954661846 -2.995213747
          -2.9662363529 -2.583596468 -3.0299706459 -2.9710071087 -2.2969613075 -2.8376023769
          -2.9145009518 -2.8614077568 -3.0223631859 -2.9340744019 -2.9415242672 -2.9207804203
          -2.2767136097 -2.920327425 -2.4858789444 -2.9224059582 -2.9725158215 -3.0692739487
          -2.3566048145 -2.9025096893 -2.9101104736 -2.9415242672 -2.7680032253 -2.4099943638
          -3.0697596073 -2.9260699749 -2.9331531525 -3.0023868084 -2.9299516678 -2.3173694611
          -2.9710071087 -2.9552199841 -2.9295172691 -2.8851606846 -2.6545903683 -3.0150737762
          -2.8449621201 -2.458255291 -2.995213747 -2.9600787163 -2.8310205936 -2.8672688007
          -2.8952395916 -2.9295172691 -2.5445280075 -3.006919384 -2.9134328365 -2.3993031979
          -3.0394587517 -2.9260699749 -3.1033456326 -3.014775753 -2.9380910397 -3.0005807877
          -2.7980368137 -3.0027279854 -2.8965113163 -2.5819735527 -2.8419754505 -2.9101104736
          -2.947697401 -2.8484349251 -2.9408853054 -2.6744534969 -2.9380910397 -2.8955032825
          -2.9025096893 -2.507805109 -2.9478971958 -2.9134328365 -3.1757969856 -2.8910782337
          -3.2399194241 -3.1464745998 -2.9803938866 -2.9224059582 -2.7073881626 -3.1155307293
          -3.0050458908 -2.8672688007 -2.9756474495 -2.9589867592 -2.9750926495 -2.7811508179
          -2.9207804203 -2.6251733303 -2.9803938866 -2.8310205936 -3.0043828487 -3.043194294
          -2.9478971958 -2.9340744019 -2.8194556236 -2.8449621201 -3.3554813862 -3.4262681007
          -3.0740113258 -3.3452959061 -3.3267028332 -3.2332491875 -2.8955032825 -3.0790543556
          -3.2029156685 -2.8614077568 -2.8851606846 -2.73695755 -3.2002966404 -3.0740113258
          -2.8484349251 -3.1894652843 -3.1963665485 -2.9552199841 -2.9145009518 -3.043194294
          -2.8419754505 -3.5760526657 -3.6578431129 -3.2084653378 -3.6095969677 -3.6311438084
          -3.0043828487 -3.5713756084 -2.9299516678 -3.2334127426 -2.8376023769 -3.5471718311
          -2.8965113163 -3.4985396862 -2.9750926495 -3.2084653378 -3.4343214035 -3.0023868084
          -3.0005807877 -3.3861768246 -3.1963665485 -2.9589867592 -3.3541889191 -3.811832428
          -3.9038255215 -3.9066214561 -3.9889814854 -3.1894652843 -3.014775753 -2.9331531525
          -3.973606348 -3.0050458908 -3.3762726784 -3.9372546673 -3.8309204578 -3.2002966404
          -3.3541889191 -3.7119464874 -3.1033456326 -3.1155307293 -3.3861768246 -3.5935640335
          -3.2029156685 -3.4934356213 -4.0117731094 -4.1044821739 -3.1464745998 -4.1652536392
          -3.4343214035 -3.0394587517 -4.311460495 -3.2332491875 -4.3392801285 -3.4628446102
          -4.2731165886 -3.4985396862 -4.1212916374 -3.4934356213 -3.2399194241 -3.3267028332
          -3.9691810608 -3.5471718311 -3.5935640335 -3.7966735363 -3.1757969856 -3.6253113747
          -3.3452959061 -4.1071777344 -3.7119464874 -4.1791787148 -4.279030323 -3.5713756084
          -4.4560623169 -3.4928994179 -4.5004005432 -4.4018592834 -3.8309204578 -3.4262681007
          -4.2481160164 -3.6253113747 -3.6311438084 -4.1155276299 -3.9372546673 -3.7966735363
          -3.952382803 -3.3554813862 -3.6095969677 -3.752610445 -3.9691810608 -4.0354299545
          -3.973606348 -4.0563282967 -4.1434173584 -4.2769026756 -3.4944486618 -4.2959980965
          -4.1212916374 -4.2027015686 -3.6578431129 -3.752610445 -3.9889814854 -4.1105160713
          -4.055325985 -4.2731165886 -3.952382803 -3.5760526657 -3.9868407249 -3.9066214561
          -3.840909481 -4.1155276299 -4.3392801285 -3.7793693542 -3.7281417847 -3.741286993
          -3.762597084 -3.4684691429 -3.7569372654 -3.9038255215 -4.2481160164 -3.7361211777
          -4.311460495 -3.840909481 -3.7338836193 -4.4018592834 -3.7659549713 -3.9868407249
          -3.811832428 -4.1652536392 -3.8339393139 -4.055325985 -4.5004005432 -3.8108768463
          -3.4018912315 -3.295971632 -3.2197186947 -3.3537948132 -3.1470327377 -4.1044821739
          -3.1683580875 -4.1105160713 -4.4560623169 -3.2301630974 -3.8108768463 -3.2747452259
          -4.2027015686 -4.0117731094 -3.3240029812 -3.8339393139 -4.279030323 -3.4851267338
          -4.2959980965 -3.7659549713 -3.5942180157 -3.0385782719 -2.9473049641 -4.1791787148
          -2.8578705788 -3.0895838737 -2.8000581264 -3.7338836193 -2.8632586002 -4.2769026756
          -2.9535214901 -3.5942180157 -2.9947228432 -4.1071777344 -3.7361211777 -2.9517042637
          -4.1434173584 -3.4851267338 -3.1337192059 -3.7569372654 -3.3240029812 -3.2418599129
          -4.0563282967 -2.8303902149 -2.8342561722 -2.847209692 -2.7005636692 -3.2747452259
          -2.8639070988 -3.762597084 -2.928194046 -2.9911088943 -3.2418599129 -4.0354299545
          -2.9837937355 -3.2301630974 -3.741286993 -2.7185907364 -3.1337192059 -3.1812391281
          -3.1683580875 -2.9517042637 -3.2317869663 -3.7281417847 -2.8329951763 -2.9206018448
          -3.2071390152 -2.9947228432 -3.0012323856 -3.1470327377 -3.0539259911 -3.1227927208
          -3.2317869663 -3.7793693542 -3.2401525974 -2.9535214901 -3.490190506 -3.2197186947
          -3.1812391281 -2.8777139187 -4.1265764236 -2.8632586002 -2.7185907364 -3.295971632
          -3.3724067211 -2.8000581264 -2.9179184437 -2.9837937355 -3.0067865849 -3.602086544
          -3.0853898525 -3.1989285946 -3.3651185036 -3.4018912315 -3.3724067211 -3.4241945744
          -2.9911088943 -2.8578705788 -2.2241494656 -4.1265764236 -2.3413600922 -2.928194046
          -5.1424646378 -2.8777139187 -2.9473049641 -4.8082575798 -2.8639070988 -3.490190506
          -3.9036259651 -3.0385782719 -4.8082575798 -3.2401525974 -2.847209692 -5.1424646378
          -3.1227927208 -2.8342561722 -2.3413600922 -3.0539259911 -2.2241494656 -2.8303902149
          -3.0012323856 -3.4241945744 -3.3651185036 -2.9206018448 -3.1989285946 -2.8329951763
          -3.0853898525 -3.0067865849 -2.9179184437
        </DataArray>
        <DataArray type="Float32" Name="VELOCITY" NumberOfComponents="3" ComponentName0="X-VELOCITY" ComponentName1="Y-VELOCITY" ComponentName2="Z-VELOCITY" format="ascii" RangeMin="0" RangeMax="8.3475131989">
          0 0 0 0 0 0
          4.3037228584 0.051876038313 0 4.1847271919 0.057576052845 0
          3.4795792103 0.18132701516 0 0 0 0
          4.0764393806 0.049840819091 0 3.3865628242 0.16881026328 0
          3.2830729485 0.16297823191 0 3.9364173412 0.26355913281 0
          0 0 0 3.9715895653 0.047823477536 0
          3.9004983902 0.24256569147 0 3.8706169128 0.231476143 0
          3.1792902946 0.15982329845 0 4.5866560936 0.2726572752 0
          0 0 0 3.8693232536 0.046802919358 0
          4.6136627197 0.24255335331 0 3.8453409672 0.22543589771 0
          3.0757813454 0.15869699419 0 4.6396889687 0.22851075232 0
          3.8216795921 0.22227942944 0 5.2131333351 0.22754685581 0
          0 0 0 4.6594996452 0.22482654452 0
          5.2731189728 0.19970311224 0 3.7675626278 0.046531740576 0
          2.9734237194 0.15793134272 0 5.3194971085 0.19586773217 0
          4.6683254242 0.22676335275 0 3.7984762192 0.21918536723 0
          5.3432221413 0.20943747461 0 0 0 0
          5.7543125153 0.15675859153 0 5.821313858 0.14285005629 0
          3.6660745144 0.046116162091 0 5.8601078987 0.16572198272 0
          2.8735587597 0.15591868758 0 5.3425784111 0.22936825454 0
          4.6658496857 0.22831210494 0 3.7765803337 0.21335913241 0
          5.866150856 0.2086097151 0 0 0 0
          6.2068738937 0.085746228695 0 5.324798584 0.24286174774 0
          3.5655705929 0.045220162719 0 6.2533392906 0.099002614617 0
          5.8490624428 0.24884331226 0 4.6563577652 0.22379077971 0
          2.7780354023 0.15189631283 0 6.2721223831 0.153628245 0
          3.7583196163 0.20350599289 0 6.2722997665 0.21835401654 0
          5.8273906708 0.26626262069 0 5.3030185699 0.24021857977 0
          6.4992871284 0.040901955217 0 0 0 0
          6.2728338242 0.26099723577 0 3.467133522 0.043865341693 0
          6.5197091103 0.077129282057 0 4.6465930939 0.21079221368 0
          2.6886086464 0.14611023664 0 6.5375270844 0.14315828681 0
          5.8195233345 0.25150895119 0 6.5699524879 0.20140862465 0
          3.7462570667 0.19024184346 0 5.2903003693 0.21959967911 0
          6.2911763191 0.26229617 0 6.627348423 0.22351147234 0
          4.6426753998 0.19080252945 0 6.588414669 0.02329223603 0
          0 0 0 3.3715817928 0.042352091521 0
          6.6098909378 0.054471708834 0 6.3348846436 0.22188830376 0
          2.606320858 0.13957811892 0 5.836379528 0.20903819799 0
          6.6624488831 0.097352065146 0 6.7074136734 0.20123024285 0
          5.2950124741 0.18620221317 0 3.742058754 0.17558257282 0
          6.7526025772 0.12564149499 0 4.6481156349 0.16779921949 0
          6.8671574593 0.12609326839 0 6.4006252289 0.15438134968 0
          6.5849142075 -1.0894525062e-014 0 6.7974977493 0.14496991038 0
          0 0 0 5.8799161911 0.1514120847 0
          3.2790749073 0.041090261191 0 6.6344766617 -5.9939795233e-015 0
          2.53120327 0.13360013068 0 6.731692791 -2.2356153505e-015 0
          5.319879055 0.14815089107 0 6.9821848869 0.10017263889 0
          3.7459871769 0.16197003424 0 6.8626456261 3.2140016674e-016 0
          6.8820538521 0.073886550963 0 6.4790811539 0.078431345522 0
          6.9974079132 2.1390703235e-015 0 4.6635909081 0.1461661458 0
          5.9460511208 0.091797657311 0 7.0748944283 0.058864757419 0
          0 0 0 6.588414669 -0.02329223603 0
          3.1890308857 0.040426362306 0 6.6098909378 -0.054471708834 0
          2.4623544216 0.12927278876 0 5.3635482788 0.11277703196 0
          6.6624488831 -0.097352065146 0 7.1062498093 2.3207963719e-015 0
          6.9492220879 0.0052727893926 0 6.7526025772 -0.12564149499 0
          6.5600447655 0.0091575030237 0 3.7570238113 0.1513979882 0
          7.1318025589 0.014753785916 0 7.1710596085 2.8106107495e-015 0
          6.0277786255 0.040315080434 0 6.8671574593 -0.12609326839 0
          4.6877479553 0.12926009297 0 6.4992871284 -0.040901955217 0
          0 0 0 6.5197091103 -0.077129282057 0
          6.9926857948 -0.048902150244 0 3.1003093719 0.040529396385 0
          7.1500840187 -0.022953234613 0 5.4221482277 0.085328131914 0
          6.9821848869 -0.10017263889 0 6.5375270844 -0.14315828681 0
          2.3982708454 0.12716920674 0 6.6340579987 -0.042460601777 0
          7.18785429 -1.2484907771e-015 0 6.5699524879 -0.20140862465 0
          3.7732791901 0.14493943751 0 6.1158924103 0.0046933204867 0
          7.0748944283 -0.058864757419 0 6.627348423 -0.22351147234 0
          4.7179365158 0.11901332438 0 7.1347179413 -0.048196129501 0
          7.0101470947 -0.079528324306 0 7.1631388664 -4.9841917364e-015 0
          6.2068738937 -0.085746228695 0 0 0 0
          6.7074136734 -0.20123024285 0 5.4894824028 0.0695111081 0
          6.6914348602 -0.066829845309 0 6.2533392906 -0.099002614617 0
          3.0115609169 0.041335485876 0 7.1318025589 -0.014753785916 0
          2.3372712135 0.12719292939 0 6.2721223831 -0.153628245 0
          6.2722997665 -0.21835401654 0 3.7923688889 0.14261616766 0
          6.7974977493 -0.14496991038 0 6.1981258392 -0.0081346994266 0
          7.1101236343 -4.720949143e-015 0 7.0959091187 -0.055809512734 0
          7.0020575523 -0.078082598746 0 4.7504191399 0.11607513577 0
          7.1500840187 0.022953234613 0 6.2728338242 -0.26099723577 0
          6.7220878601 -0.055342640728 0 6.8820538521 -0.073886550963 0
          5.5565099716 0.067985922098 0 6.2911763191 -0.26229617 0
          5.7543125153 -0.15675859153 0 0 0 0
          2.9216618538 0.042536586523 0 5.821313858 -0.14285005629 0
          7.0475091934 -3.4389190375e-015 0 5.8601078987 -0.16572198272 0
          2.2779166698 0.12854877114 0 7.1347179413 0.048196129501 0
          7.0485448837 -0.041309386492 0 5.866150856 -0.2086097151 0
          6.3348846436 -0.22188830376 0 3.8116912842 0.14341272414 0
          6.2596392632 0.0070429788902 0 6.9492220879 -0.0052727893926 0
          6.9727554321 -0.039144221693 0 5.8490624428 -0.24884331226 0
          4.7804222107 0.11983665079 0 6.7187585831 -0.0050073373131 0
          6.4006252289 -0.15438134968 0 7.0959091187 0.055809512734 0
          5.6119656563 0.081442140043 0 5.8273906708 -0.26626262069 0
          6.9989104271 -1.3723682869e-015 0 6.9926857948 0.048902150244 0
          5.2131333351 -0.22754685581 0 0 0 0
          7.0119047165 -0.0041264900938 0 2.8301594257 0.043603371829 0
          5.2731189728 -0.19970311224 0 2.2194018364 0.12980024517 0
          5.3194971085 -0.19586773217 0 5.8195233345 -0.25150895119 0
          6.2871747017 0.049531795084 0 6.4790811539 -0.078431345522 0
          6.9329805374 0.032877679914 0 5.3432221413 -0.20943747461 0
          3.8287339211 0.1453333497 0 5.3425784111 -0.22936825454 0
          4.8027749062 0.12809193134 0 7.0485448837 0.041309386492 0
          7.0101470947 0.079528324306 0 6.9891009331 8.3554035129e-016 0
          6.6828742027 0.074540577829 0 5.836379528 -0.20903819799 0
          6.5600447655 -0.0091575030237 0 5.6455168724 0.1064453423 0
          5.324798584 -0.24286174774 0 7.0064821243 0.048043381423 0
          4.5866560936 -0.2726572752 0 0 0 0
          4.6136627197 -0.24255335331 0 2.7376656532 0.043852496892 0
          4.6396889687 -0.22851075232 0 5.8799161911 -0.1514120847 0
          6.9001741409 0.11869835109 0 2.1618840694 0.12904448807 0
          6.2760353088 0.10823834687 0 5.3030185699 -0.24021857977 0
          7.0020575523 0.078082598746 0 4.6594996452 -0.22482654452 0
          3.841565609 0.14556640387 0 7.0119047165 0.0041264900938 0
          6.6340579987 0.042460601777 0 7.0353984833 1.0554245457e-015 0
          4.8135886192 0.13665807247 0 4.6683254242 -0.22676335275 0
          6.6283888817 0.15858930349 0 5.2903003693 -0.21959967911 0
          5.9460511208 -0.091797657311 0 7.0466461182 0.098581753671 0
          5.6527767181 0.13394254446 0 4.6658496857 -0.22831210494 0
          6.9727554321 0.039144221693 0 6.8933115005 0.18804042041 0
          0 0 0 5.2950124741 -0.18620221317 0
          3.9364173412 -0.26355913281 0 7.0064821243 -0.048043381423 0
          6.6914348602 0.066829845309 0 3.9004983902 -0.24256569147 0
          2.6461012363 0.042573548853 0 4.6563577652 -0.22379077971 0
          6.2351946831 0.16202870011 0 3.8706169128 -0.231476143 0
          2.1066865921 0.12424931675 0 6.0277786255 -0.040315080434 0
          7.1376700401 3.6276252727e-015 0 3.8494918346 0.14089094102 0
          3.8453409672 -0.22543589771 0 4.6465930939 -0.21079221368 0
          3.8216795921 -0.22227942944 0 4.8124747276 0.13966612518 0
          6.5783772469 0.21522176266 0 5.319879055 -0.14815089107 0
          7.1322607994 0.12818227708 0 6.7220878601 0.055342640728 0
          6.9329805374 -0.032877679914 0 3.7984762192 -0.21918536723 0
          5.6389288902 0.15086573362 0 6.1158924103 -0.0046933204867 0
          7.0466461182 -0.098581753671 0 6.9234681129 0.21342752874 0
          4.6426753998 -0.19080252945 0 0 0 0
          3.4795792103 -0.18132701516 0 3.7765803337 -0.21335913241 0
          2.5586829185 0.039208550006 0 6.1852412224 0.18764282763 0
          5.3635482788 -0.11277703196 0 3.3865628242 -0.16881026328 0
          7.2744832039 5.2508382376e-016 0 3.2830729485 -0.16297823191 0
          2.0562813282 0.11373078823 0 3.8536026478 0.1283814162 0
          3.1792902946 -0.15982329845 0 4.6481156349 -0.16779921949 0
          7.2456407547 0.12498779595 0 6.7187585831 0.0050073373131 0
          6.5543942451 0.22079138458 0 3.7583196163 -0.20350599289 0
          6.9001741409 -0.11869835109 0 3.0757813454 -0.15869699419 0
          6.1981258392 0.0081346994266 0 4.8037948608 0.13106808066 0
          7.1322607994 -0.12818227708 0 5.4221482277 -0.085328131914 0
          5.6174883842 0.14530526102 0 2.9734237194 -0.15793134272 0
          6.9866828918 0.18478575349 0 3.7462570667 -0.19024184346 0
          4.6635909081 -0.1461661458 0 7.4104571342 -2.8218078898e-015 0
          2.8735587597 -0.15591868758 0 6.1489448547 0.17110523582 0
          4.3037228584 -0.051876038313 0 0 0 0
          4.1847271919 -0.057576052845 0 2.4795823097 0.033538006246 0
          6.6828742027 -0.074540577829 0 2.0139858723 0.096649467945 0
          4.0764393806 -0.049840819091 0 6.2596392632 -0.0070429788902 0
          5.4894824028 -0.0695111081 0 6.8933115005 -0.18804042041 0
          3.742058754 -0.17558257282 0 3.9715895653 -0.047823477536 0
          3.8567745686 0.10627805442 0 7.3578195572 0.090798251331 0
          2.7780354023 -0.15189631283 0 6.5657000542 0.17193372548 0
          7.2456407547 -0.12498779595 0 3.8693232536 -0.046802919358 0
          4.6877479553 -0.12926009297 0 4.7955727577 0.1069996208 0
          5.6041440964 0.11229407787 0 3.7675626278 -0.046531740576 0
          7.065223217 0.11346349865 0 2.6886086464 -0.14611023664 0
          3.7459871769 -0.16197003424 0 7.5112085342 -3.8911122351e-015 0
          6.2871747017 -0.049531795084 0 6.6283888817 -0.15858930349 0
          5.5565099716 -0.067985922098 0 6.1406621933 0.11438230425 0
          3.6660745144 -0.046116162091 0 6.9234681129 -0.21342752874 0
          0 0 0 4.7179365158 -0.11901332438 0
          0 0 0 0 0 0
          2.4132735729 0.025804778561 0 0 0 0
          1.9834005833 0.073357641697 0 2.606320858 -0.13957811892 0
          7.4407739639 0.038629647344 0 0 0 0
          3.8628952503 0.074709326029 0 3.5655705929 -0.045220162719 0
          7.3578195572 -0.090798251331 0 6.60607481 0.085324302316 0
          3.7570238113 -0.1513979882 0 0 0 0
          4.7962899208 0.067671567202 0 6.2760353088 -0.10823834687 0
          5.6119656563 -0.081442140043 0 2.53120327 -0.13360013068 0
          7.5561933517 -3.1513176823e-015 0 3.467133522 -0.043865341693 0
          5.6096520424 0.056148719043 0 7.1363840103 0.023796821013 0
          4.7504191399 -0.11607513577 0 6.5783772469 -0.21522176266 0
          0 0 0 6.9866828918 -0.18478575349 0
          3.7732791901 -0.14493943751 0 0 0 0
          6.1614327431 0.03300543502 0 0 0 0
          2.363689661 0.016724627465 0 3.3715817928 -0.042352091521 0
          7.477742672 -0.015263146721 0 1.9677097797 0.045485842973 0
          2.4623544216 -0.12927278876 0 7.4407739639 -0.038629647344 0
          6.6591591835 -0.012720119208 0 0 0 0
          5.6455168724 -0.1064453423 0 3.8755776882 0.035940021276 0
          6.2351946831 -0.16202870011 0 4.7804222107 -0.11983665079 0
          4.8114266396 0.017591172829 0 6.5543942451 -0.22079138458 0
          3.7923688889 -0.14261616766 0 7.5427336693 -5.4093294311e-015 0
          3.2790749073 -0.041090261191 0 0 0 0
          7.18227005 -0.059504903853 0 5.6360354424 -0.011808515526 0
          2.3982708454 -0.12716920674 0 7.065223217 -0.11346349865 0
          6.2012190819 -0.051997680217 0 7.4665021896 -0.058321777731 0
          0 0 0 5.6527767181 -0.13394254446 0