<?xml version="1.0"?>
<VTKFile type="PolyData" version="0.1" byte_order="LittleEndian" compressor="vtkZLibDataCompressor">
  <PolyData>
    <Piece NumberOfPoints="1071" NumberOfVerts="0" NumberOfLines="0" NumberOfStrips="0" NumberOfPolys="2000">
      <PointData>
        <DataArray type="Float32" Name="PRESSURE" format="ascii" RangeMin="-8.9804706573" RangeMax="2.1486403942">
          0 0.00045500323176 0 -0.00047232751967 0 0.00012458824494
          -0.00097308546538 0.00014945877774 -9.2404596217e-005 0 -0.00038336514262 -0.0013362395111
          -0.0004100924416 -0.00063007592689 -0.0004377553123 0 -0.00081021059304 -0.0015445555327
          -9.8405362223e-005 -0.00079359888332 -0.00075484678382 -0.0002987262269 -0.00092835701071 0
          -0.0011038727826 -0.0004963731626 -0.00017636125267 -0.001632263069 -0.00099344598129 -0.0003356608504
          -0.00066806108225 -0.0010331503581 -0.00047903190716 -0.0012790376786 0 -0.00012608132965
          -0.0016438242747 -0.00026729187812 -0.0011501730187 -0.00060494116042 -0.00080505385995 -0.0011081401026
          -0.00039924468729 -0.0013698482653 0 -0.00070915924152 -0.0016168118455 -0.00011993684166
          -0.00051461893599 -0.0009049726068 -0.0012421695283 -0.0002431593457 -0.0011561193969 -0.00035730295349
          -0.00060990010388 -0.00078902108362 0 -0.0014105923474 -0.00045731270802 -0.0015771191102
          -0.0001090010046 -0.00097146379994 -0.0012906525517 -0.00022014671413 -0.00068232265767 -0.00032373674912
          -0.001182316686 -0.00084393622819 -0.00053998391377 -0.00041448432603 -0.0010099578649 0
          -0.0014269524254 -0.0015396216186 -0.00010389796807 -0.00060243805638 -0.0013140141964 -0.00073085905751
          -0.00020821778162 -0.0004890516866 -0.00087486504344 -0.0011923529673 -0.00030505799805 -0.0010259425035
          -0.00038980675163 -0.00064273684984 0 -0.00054443906993 -0.0014352443395 -0.00075541745173
          -0.0015115814749 -9.9402044725e-005 -0.0013253646903 -0.00019998870266 -0.00088346761186 -0.00045902331476
          -0.0011910621542 -0.00029439816717 -0.00057830556761 -0.00065957423067 -0.00037742653512 -0.0010238441173
          -0.00075627164915 -0.00050965388073 -0.0014445905108 0 -0.0014957523672 -0.00010389796807
          -0.0013330542715 -0.000871286029 -0.00020821778162 -0.00044542952674 -0.0005887383013 -0.00030505799805
          -0.00065192132024 -0.0011819098145 -0.00053909776034 -0.00049530423712 -0.000733522058 -0.00038980675163
          -0.001006621751 0 -0.0014595299726 -0.0001090010046 -0.00057397352066 -0.0014926787699
          -0.0005450664903 -0.00083917821757 -0.00045902331476 -0.00022014671413 -0.0013420607429 -0.00061862188159
          -0.00052441854496 -0.00032373674912 -0.0011669251835 -0.00068667065352 -0.00050965388073 -0.00041448432603
          -0.00097574444953 -0.00052535883151 -0.00053207675228 -0.00053045421373 0 -0.0014820024371
          -0.0004890516866 -0.00078699388541 -0.00055801559938 -0.00011993684166 -0.0015020188875 -0.00053909776034
          -0.0013553496683 -0.0002431593457 -0.00035730295349 -0.0011468895245 -0.00054443906993 -0.00061430851929
          -0.00051120622084 -0.00047758439905 -0.00046061974717 -0.0009313293267 -0.0005450664903 -0.00045731270802
          -0.00046760923578 -0.00057830556761 -0.0007134170155 -0.00053998391377 0 -0.0015125542413
          -0.0015232015867 -0.00012608132965 -0.00046434748219 -0.00026729187812 -0.001374907908 -0.00052535883151
          -0.00039886712329 -0.00039924465818 -0.00060243805638 -0.0011215892155 -0.00051388842985 -0.0005887383013
          -0.00035637011752 -0.00051461893599 -0.00087230833014 -0.00034379179124 -0.00064273684984 -0.00047758439905
          -0.00061588693643 -0.00060990010388 -0.00038717905409 -0.00057397352066 0 -0.0015509353252
          -0.00028554565506 -0.0015556999715 -0.00017636125267 -0.0014024749398 -0.0003356608504 -0.00068232265767
          -0.00038153619971 -0.00065957423067 -0.00021499393915 -0.00047903190716 -0.0010900424095 -0.00060494116042
          -0.00079656665912 -0.00039886712329 -0.00053207669407 -0.00027638455504 -0.0001815664873 -0.00073085905751
          -0.00065192132024 -0.00049053510884 -0.00070915918332 -0.00013287436741 0 -0.0015963109909
          -9.8405354947e-005 -0.0015991284745 -0.0002987262269 -0.00075541745173 -3.0756375054e-005 -0.0014401064254
          -0.00021186345839 -0.00078902102541 -0.00046061974717 -0.0004963731626 -0.0010506856488 -0.00028554565506
          -0.00061862188159 -0.00012779931421 -0.00070104864426 -0.00066806108225 2.5731358619e-005 -0.00084393622819
          -0.00075627164915 6.5285283199e-005 -0.0003321088152 -0.00080505380174 -0.00035637011752 0.00020380399656
          -0.0016472623684 -0.00087486504344 0 -0.00013287436741 -0.00055801559938 -0.0004100924416
          -0.0016533087473 -0.0009049726068 2.2488068225e-006 -0.00063007592689 -0.0014907292789 -0.000733522058
          6.3803774538e-005 -0.0010015598964 -0.00079359888332 -0.00097146379994 -0.00092835701071 -0.00058186159004
          0.00028676222428 -0.00088346761186 0.00031680290704 -0.00046760923578 -0.0002149939246 -0.0010331503581
          -0.00013387882791 -0.00068667059531 6.5285283199e-005 0.00049825810129 -0.0010099578649 -0.0017016986385
          0 -0.0011081401026 -0.001718407264 0.00026991096092 -0.00087128597079 0.00014945877774
          0.00030491626239 -9.2404588941e-005 -0.0015588502865 -0.00094057095703 -0.0004377553123 -0.0010259425035
          0.00063167617191 -0.00034379179124 0.00061258568894 -0.0011561193969 -3.0756371416e-005 -0.00075484678382
          -0.00061430851929 -0.00043443849427 0.00031680293614 -0.00083917821757 0.00011244182679 -0.00099344598129
          0.00086476275465 -0.001182316686 -0.0010238441173 0.0006034920807 -0.0011501730187 0.00060253049014
          0 -0.0017567804316 -0.00047232751967 -0.0017952662893 -0.0001815664873 -0.001651607221
          -0.00097308546538 -0.00051388837164 -0.00078699388541 0.00020380399656 -0.0011923529673 -0.0013362393947
          -0.00086594407912 0.0010225244332 -0.0012421695283 0.0010171659524 0.00063167617191 -0.0015445555327
          -0.001006621751 -0.00025386433117 0.00041670436622 -0.001632263069 0.0013186751166 -0.0012906525517
          -0.0011910621542 0.00096914998721 -0.00038153617061 2.5731364076e-005 -0.0007134170155 0.0010141398525
          -0.0016438242747 0.00049825810129 -0.0018089727964 -0.00097574444953 0 0.00045500323176
          -0.0018860998098 0.00012458824494 -0.0017804136733 -0.0013140141964 0.0015052305534 -0.00038336514262
          -0.0007770586526 -0.0016168118455 0.0010225244332 0.001517997589 -0.0011819098145 -0.00081021059304
          -3.5540149838e-005 -0.00021186345839 -0.00061588693643 -0.0013253646903 0.0014133879449 -0.0015771191102
          0.00079012924107 0.0018793559866 -0.0009313293267 0.00028676222428 -0.0011038727826 0.00086476275465
          -0.0011669251835 -0.0012790376786 0.0015216767788 -0.0018544198247 -0.0019958438352 -0.0015396216186
          0.0020997959655 -0.0019635618664 -0.0013330542715 0.0015052305534 0.0021368493326 -0.0013698482653
          -0.00049053510884 -0.00067596195731 2.2488136437e-006 -0.00087230833014 0.00022351577354 0.00061258568894
          -0.0011468895245 0.0019498114707 -0.0015115814749 -0.0014105923474 0.0025712174829 0.0012446646579
          -0.0013420607429 0.0013186751166 0.0021450519562 0.0028314976953 -0.0014269524254 -0.0003321088152
          -0.00079656660091 0.0020997959655 -0.0014957523672 -0.0018899872666 -0.0021346597932 -0.0011215892155
          0.00026991096092 -0.0022303469013 0.0029005594552 0.0010171659524 -0.00057005620329 -0.0013553496683
          0.00052220682846 0.0025943641085 -0.0014352443395 -0.0014926787699 0.0034250540193 0.0018793559866
          0.0017914277269 -0.00070104858605 -0.0010900424095 -0.00013387882791 0.0029066372663 0.00060253054835
          -0.001374907908 0.0028314976953 -0.0014445905108 0.003732453566 -0.0019156007329 -0.0015020187711
          0.001517997589 -0.0023224472534 -0.0026275846176 0.0038416718598 -0.000476782443 0.0033655213192
          -0.0014595299726 0.0025712174829 0.00085081532598 -0.00058186159004 -0.0010506856488 0.0044796252623
          -0.0014024749398 0.00011244183406 0.002437321702 0.0010141398525 -0.0015232015867 0.003732453566
          0.0038293835241 0.0048437039368 -0.0014820024371 0.0021368493326 -0.0019390232628 -0.0025968553964
          0.0049983407371 -0.0010015598964 -0.0032299093436 -0.00043443849427 -0.0014401064254 0.0042843455449
          -0.00043169414857 0.0034250540193 0.00041670436622 -0.0015556999715 0.0011827405542 0.0057832417078
          0.0015216767788 -0.0015125541249 0.0031780919526 0.0048437039368 0.0029005594552 0.0062178596854
          0.0049319076352 -0.0014907292789 -0.00094057095703 -0.00025386433117 -0.0015991284745 0.00641214801
          -0.0019851373509 -0.0015509353252 0.00079012924107 -0.003027358558 0.0044796252623 0.0053742029704
          -0.0041560730897 -0.00050229812041 0.0021450519562 0.00739453407 0.0014595960965 -0.0015588501701
          0.0062178596854 0.0039845011197 -0.00086594407912 -0.0016533087473 0.0038416718598 -3.5540138924e-005
          -0.0015963109909 0.007922119461 0.0062171253376 0.0012446646579 0.0057832417078 0.0081207333133
          -0.0021134093404 0.006659775041 -0.0037398037966 0.0029066372663 -0.0055948649533 -0.00081179029075
          -0.001651607221 -0.001718407264 0.0093802250922 -0.0007770586526 -0.0016472623684 0.0015644329833
          0.00022351578809 0.007922119461 0.0049983407371 0.0047753471881 0.010040712543 0.0017914277269
          0.0076475110836 0.00739453407 -0.0017952662893 -0.0017804136733 -0.0017016986385 0.010138475336
          0.0081648267806 0.0038293835241 -0.0024499867577 -0.00067596195731 -0.0049588908441 -0.0078466385603
          -0.0015799367102 0.011804488488 0.00052220682846 0.001273693284 0.00641214801 0.010040712543
          0.0053655696101 0.002437321702 0.012673797086 -0.0018860998098 -0.0017567804316 -0.0019635618664
          0.0090932985768 0.0093802260235 0.0049319076352 -0.00057005614508 0.0099081657827 0.012410879135
          -0.0032454465982 -0.0070808902383 0.00085081532598 -0.011390382424 0.014697273262 -0.0031939542387
          0.0081207333133 0.012673797086 0.00017104654398 -0.0018089727964 0.0031780919526 -0.0019958438352
          -0.0022303469013 0.0053677679971 0.015924545005 -0.000476782443 0.011804488488 0.010227212682
          0.0062171253376 0.01189768035 0.0011827405542 0.014713279903 -0.0018544198247 -0.0049763093702
          -0.010796124116 0.010138475336 -0.016992812976 -0.0021346597932 0.017973184586 0.0039845011197
          0.015924545005 -0.0063321422786 -0.0026275846176 -0.0025068758987 -0.00043169411947 0.019852589816
          0.0040078992024 0.0076475110836 0.014697273262 0.010316240601 0.0014595960965 0.014123372734
          -0.0018899872666 -0.0023224472534 0.016435535625 0.012410879135 -0.0085184695199 -0.0032299093436
          0.0047753471881 -0.017290305346 -0.025886174291 0.019852589816 0.021239288151 -0.012179854326
          -0.00050229812041 -0.0081452941522 0.024338778108 0.0090932985768 -0.00021423028375 0.017973184586
          -0.0019156007329 0.0015644329833 0.0078206732869 -0.0025968553964 0.016546983272 0.016141781583
          -0.0041560730897 0.014713279903 0.0053655696101 -0.015432611108 0.024338778108 -0.028564007953
          0.023364461958 -0.040056031197 -0.00081179029075 -0.022804159671 -0.0019390232628 -0.019235603511
          0.010227212682 0.028728315607 0.001273693284 0.021239288151 -0.010138944723 -0.003027358558
          -0.00035594639485 0.019043561071 -0.0055948649533 0.0053677679971 0.010706879199 0.016435535625
          -0.0015799367102 0.028728315607 -0.02841062285 0.02156704478 -0.047914538532 -0.0019851373509
          -0.062697649002 -0.041790813208 0.010316240601 -0.0037398037966 -0.040211904794 0.00017104655853
          0.030955217779 0.023364461958 -0.031029900536 -0.0078466385603 -0.020216630772 0.021027734503
          0.0040078992024 0.016141781583 -0.0062794764526 -0.0031939542387 -0.0021134093404 0.030955217779
          0.0096299136057 -0.051924977452 -0.0049588908441 -0.080610476434 -0.098909832537 0.0078206732869
          -0.0025068758987 -0.07528270036 0.02156704478 0.025581445545 -0.078837811947 -0.011390382424
          -0.072392910719 0.019796736538 -0.00021423028375 -0.062917418778 -0.0024499867577 0.010706879199
          -0.0063321418129 -0.047129571438 -0.0070808902383 0.025581445545 -0.025098657236 -0.0081452941522
          -0.093072645366 -0.13472770154 -0.00035594639485 -0.15666675568 -0.016992812976 -0.13352948427
          0.0096299136057 0.00010450864647 -0.14828231931 -0.15063196421 -0.0032454465982 -0.010138944723
          0.0056765233167 -0.012179854326 -0.14776842296 -0.0062794764526 -0.010796124116 -0.13314832747
          0.00010450864647 -0.019235603511 -0.020216630772 -0.10506004095 -0.025886174291 -0.16246423125
          -0.22195512056 -0.24795489013 -0.025098657236 -0.23274956644 -0.069498263299 -0.26940074563
          -0.0049763093702 -0.031029900536 -0.022804159671 -0.291380018 -0.04596080631 -0.047129571438
          -0.017290305346 -0.30359715223 -0.29437714815 -0.069498263299 -0.040211904794 -0.040056031197
          -0.062917418778 -0.26112437248 -0.27472746372 -0.35786402225 -0.38952225447 -0.0085184695199
          -0.10506004095 -0.39606043696 -0.21717885137 -0.47060671449 -0.041790813208 -0.072392910719
          -0.52652621269 -0.028564007953 -0.13314832747 -0.17574779689 -0.56079643965 -0.55658209324
          -0.078837811947 -0.21717885137 -0.062697649002 -0.14776842296 -0.5163294673 -0.015432611108
          -0.44782209396 -0.26112437248 -0.56074339151 -0.6018819809 -0.46740183234 -0.65025031567
          -0.07528270036 -0.15063196421 -0.77913022041 -0.047914538532 -0.87652075291 -0.29437714815
          -0.4170897603 -0.92458540201 -0.14828231931 -0.098909832537 -0.46740183234 -0.9103654623
          -0.30359715223 -0.02841062285 -0.85525685549 -0.5163294673 -0.70028758049 -0.13352948427
          -0.84813505411 -0.90469330549 -0.80370748043 -0.291380018 -0.080610476434 -1.0143752098
          -1.1986078024 -0.55658209324 -0.75815135241 -1.3176065683 -1.3427772522 -0.15666675568
          -0.26940074563 -0.051924977452 -0.80370748043 -0.56079643965 -1.2906966209 -1.2151008844
          -0.85525685549 -0.23274956644 -0.13472770154 -0.52652621269 -1.0465549231 -1.2315824032
          -1.1657214165 -1.3084378242 -1.4826726913 -1.6865288019 -0.9103654623 -1.1377398968
          -1.7694741488 -0.24795489013 -0.47060671449 -0.093072645366 -1.7224524021 -1.1657214165
          -0.92458540201 -1.6186662912 -1.5324060917 -0.39606043696 -0.22195512056 -1.2151008844
          -0.87652075291 -1.4927272797 -1.7127819061 -1.4928942919 -1.807749033 -2.0195589066
          -1.2906966209 -2.1708171368 -0.38952225447 -1.4905589819 -0.16246423125 -2.1528832912
          -0.77913022041 -2.016628027 -1.3427772522 -1.4928942919 -1.8784227371 -0.35786402225
          -0.65025031567 -1.7942454815 -1.5324060917 -1.3176065683 -1.7616642714 -2.0362992287
          -2.2850091457 -2.3853240013 -2.5866472721 -1.6186662912 -0.6018819809 -0.27472746372
          -2.6176688671 -1.1986078024 -1.7868826389 -2.4776751995 -2.2769007683 -1.7224524021
          -1.7616642714 -2.1207106113 -0.56074339151 -1.0143752098 -1.7942454815 -2.0273342133
          -1.7694741488 -1.9779779911 -2.6690328121 -2.9378063679 -0.90469330549 -3.0255446434
          -1.8784227371 -0.44782209396 -3.1818883419 -1.6865288019 -3.0733981133 -2.0200753212
          -2.8362722397 -2.016628027 -2.5921225548 -1.9779779911 -0.84813505411 -1.4826726913
          -2.4041583538 -2.1528832912 -2.0273342133 -2.2690536976 -0.70028758049 -2.1576359272
          -1.3084378242 -3.3743596077 -2.1207106113 -3.6534004211 -3.7152590752 -2.1708171368
          -3.8234033585 -2.1641550064 -3.5948939323 -3.2888667583 -2.2769007683 -1.2315824032
          -2.9955334663 -2.1576359272 -2.0195589066 -2.7515642643 -2.4776751995 -2.2690536976
          -2.5493824482 -1.0465549231 -1.807749033 -2.3235218525 -2.4041583538 -4.1113247871
          -2.6176688671 -4.3847045898 -4.4069933891 -4.4572701454 -2.1877908707 -4.1255550385
          -2.5921225548 -3.7578001022 -1.7127819061 -2.3235218525 -2.5866472721 -3.4013454914
          -3.1086571217 -2.8362722397 -2.5493824482 -1.4927272797 -2.8694186211 -2.3853240013
          -2.5465903282 -2.7515642643 -3.0733981133 -4.7966284752 -5.0310997963 -4.9773702621
          -4.9108977318 -2.213051796 -4.4837222099 -2.2850091457 -2.9955334663 -4.0507831573
          -3.1818883419 -2.5465903282 -3.6396512985 -3.2888667583 -3.3770267963 -2.8694186211
          -2.0362992287 -3.0255446434 -3.2429933548 -3.1086571217 -3.5948939323 -2.9928638935
          -5.3204884529 -5.4633555412 -5.2855634689 -2.5699570179 -5.0425291061 -2.9378063679
          -4.5428118706 -3.4013454914 -3.8234033585 -4.0473489761 -2.9928638935 -3.6066157818
          -3.7578001022 -2.6690328121 -3.500667572 -3.2429933548 -3.7152590752 -3.7040951252
          -4.1255550385 -3.3770267963 -3.7296996117 -5.6143331528 -5.6280384064 -3.6534004211
          -5.3357582092 -3.3426992893 -4.9593157768 -3.6396512985 -4.3961539268 -4.4572701454
          -3.8415539265 -3.7296996117 -3.294066906 -3.3743596077 -4.0507831573 -3.3833711147
          -4.4069933891 -3.7040951252 -4.1203222275 -4.4837222099 -3.500667572 -4.3863511086
          -4.3847045898 -5.7205824852 -5.6471643448 -5.3612217903 -3.9258370399 -3.6066157818
          -4.9660458565 -4.9108977318 -4.2679605484 -3.723679781 -4.3863511086 -4.1113247871
          -2.6336829662 -4.0473489761 -4.9773702621 -2.6641476154 -4.1203222275 -4.1765642166
          -4.5428118706 -3.3833711147 -5.0305976868 -5.0310997963 -5.7703185081 -5.7367787361
          -4.6035637856 -3.294066906 -5.6095075607 -5.0425291061 -5.349946022 -4.5171999931
          -5.0305976868 -4.7966284752 -4.5385766029 -3.8415539265 -2.2440364361 -5.2855634689
          -4.1765642166 -0.76329541206 -3.2676882744 -4.3961539268 -2.6641476154 -5.4633555412
          -6.1930389404 -4.9593157768 -5.8546051979 -2.6336829662 -5.844227314 -5.2242693901
          -5.9081821442 -6.4068226814 -8.9804706573 -5.3204884529 -6.1930389404 -6.2441020012
          -3.723679781 -5.3357582092 0.6796888113 -3.2676882744 2.1486403942 -4.2679605484
          -3.5593903065 -0.76329541206 -5.6280384064 -4.6070976257 -4.9660458565 -2.2440364361
          -4.0914697647 -5.6143331528 -4.6070976257 -4.5385766029 -5.3612217903 -3.5593903065
          -4.5171999931 -5.6471643448 2.1486403942 -5.349946022 0.6796888113 -5.7205824852
          -5.6095075607 -6.2441020012 -8.9804706573 -5.7367787361 -6.4068226814 -5.7703185081
          -5.9081821442 -5.844227314 -5.8546051979
        </DataArray>
        <DataArray type="Float32" Name="VELOCITY" NumberOfComponents="3" ComponentName0="X-VELOCITY" ComponentName1="Y-VELOCITY" ComponentName2="Z-VELOCITY" format="ascii" RangeMin="0" RangeMax="8.6862659454">
          0 0 0 0 0 0
          5.2546100616 0.00042206898797 0 5.2538275719 0.00049197772751 0
          5.2481369972 0.0010711842915 0 0 0 0
          5.2529993057 0.00048343089293 0 5.2483668327 0.0007963431417 0
          5.2487311363 0.00065358140273 0 5.2504067421 0.00064225069946 0
          0 0 0 5.2522516251 0.00041236297693 0
          5.2504467964 0.0005416116328 0 5.2503824234 0.00045783582027 0
          5.2491064072 0.0005199771258 0 5.2495412827 0.00067608198151 0
          0 0 0 5.251636982 0.00032752528205 0
          5.2496089935 0.00057820527581 0 5.250287056 0.00038812143612 0
          5.2494091988 0.00040865887422 0 5.2496981621 0.00048436474754 0
          5.2502012253 0.00032603961881 0 5.2496314049 0.00056252250215 0
          0 0 0 5.2497868538 0.00040173000889 0
          5.2497363091 0.00047060367069 0 5.2511610985 0.00024743567337 0
          5.2496218681 0.00031879017479 0 5.2498044968 0.0003973111161 0
          5.2498588562 0.00033168547088 0 5.2501354218 0.00027104470064 0
          5.2498517036 0.00033724037348 0 0 0 0
          5.2495174408 0.00045566208428 0 5.2496142387 0.00039459121763 0
          5.2508044243 0.00018186145462 0 5.2496938705 0.00033719517523 0
          5.2497563362 0.00024778890656 0 5.2498884201 0.0002845992276 0
          5.2499113083 0.0002738161711 0 5.2500886917 0.00022397909197 0
          5.2497634888 0.000286034483 0 0 0 0
          5.2494602203 0.00034716553637 0 5.2499160767 0.00024174300779 0
          5.250541687 0.00013250703341 0 5.2495684624 0.00030124332989 0
          5.2498207092 0.00024288926215 0 5.2499442101 0.00022865581559 0
          5.249833107 0.00019397950382 0 5.2496581078 0.0002571757941 0
          5.2500534058 0.00018729292788 0 5.2497315407 0.00022036925657 0
          5.2498674393 0.00020777955069 0 5.2499380112 0.00020785385277 0
          5.2494187355 0.00023096535006 0 0 0 0
          5.2497930527 0.00018879727577 0 5.2503480911 9.72859998e-005 0
          5.2495298386 0.00020236393902 0 5.249961853 0.00019576055638 0
          5.2498698235 0.00015513661492 0 5.249622345 0.00017476103676 0
          5.2499046326 0.00018095110136 0 5.2497010231 0.00015055818949 0
          5.250023365 0.00016171119933 0 5.2499547005 0.00018382674898 0
          5.2498440742 0.00016333082749 0 5.2497677803 0.00012986082584 0
          5.2499680519 0.00017524560099 0 5.2493929863 0.00011361776706 0
          0 0 0 5.2502017021 7.3057955888e-005 0
          5.2495036125 0.00010116298654 0 5.2498874664 0.00014417307102 0
          5.2498788834 0.00012902550225 0 5.2499346733 0.00016301230062 0
          5.2495985031 8.7928798166e-005 0 5.2498250008 0.00011317469762 0
          5.2499661446 0.00017067353474 0 5.2499933243 0.00014774869487 0
          5.2496805191 7.6292453741e-005 0 5.2499642372 0.00016766109911 0
          5.2497506142 6.627831317e-005 0 5.2499251366 0.00013197750377 0
          5.2494020462 1.1288277857e-015 0 5.2498745918 0.00010080369975 0
          0 0 0 5.249958992 0.00015492046077 0
          5.2500872612 5.6897559261e-005 0 5.2495069504 1.8507292968e-015 0
          5.2498669624 0.00011398475908 0 5.2495989799 1.5566643391e-015 0
          5.2499723434 0.00016984148533 0 5.2498116493 5.8186647948e-005 0
          5.2499580383 0.00014603497402 0 5.2496786118 1.0659438479e-015 0
          5.2499184608 9.3283626484e-005 0 5.2499585152 0.00012773077469 0
          5.2497487068 -1.148908184e-015 0 5.2499518394 0.00017433655739 0
          5.249979496 0.00015820855333 0 5.2498655319 5.2227384003e-005 0
          0 0 0 5.2493929863 -0.00011361776706 0
          5.2499923706 4.6640067012e-005 0 5.2495036125 -0.00010116298654 0
          5.2498354912 0.00010911707795 0 5.249973774 0.00018355388602 0
          5.2495985031 -8.7928798166e-005 0 5.2498102188 -2.8880107144e-015 0
          5.249958992 9.1396432254e-005 0 5.2496805191 -7.6292453741e-005 0
          5.2499899864 0.00013292864605 0 5.2499136925 0.00015789302415 0
          5.2499141693 4.8715312005e-005 0 5.2498650551 -3.2136260612e-015 0
          5.249997139 0.00017528700118 0 5.2497506142 -6.627831317e-005 0
          5.2499294281 0.00019777506532 0 5.2494187355 -0.00023096535006 0
          0 0 0 5.2495298386 -0.00020236393902 0
          5.2499995232 9.6309253422e-005 0 5.2499074936 4.0889884986e-005 0
          5.2499604225 4.8097001127e-005 0 5.2499704361 0.00021527895296 0
          5.2498116493 -5.8186647948e-005 0 5.249622345 -0.00017476103676 0
          5.2497816086 0.0001144568887 0 5.2500219345 0.00014983945584 0
          5.2499155998 -3.1055291988e-015 0 5.2497010231 -0.00015055818949 0
          5.2498545647 0.00018583894416 0 5.2500143051 0.00020986553864 0
          5.2498655319 -5.2227384003e-005 0 5.2497677803 -0.00012986082584 0
          5.2498941422 0.00024215974554 0 5.2500071526 5.1024417189e-005 0
          5.2500429153 0.00010977023339 0 5.2499647141 -2.4636275143e-015 0
          5.2494602203 -0.00034716553637 0 0 0 0
          5.2498250008 -0.00011317469762 0 5.2499604225 0.00027034379309 0
          5.2500572205 0.00018187564274 0 5.2495684624 -0.00030124332989 0
          5.2498245239 3.8909205614e-005 0 5.2499141693 -4.8715312005e-005 0
          5.2497000694 0.00013113267778 0 5.2496581078 -0.0002571757941 0
          5.2497315407 -0.00022036925657 0 5.2497725487 0.00023412401788 0
          5.2498745918 -0.00010080369975 0 5.2500314713 0.00026754141436 0
          5.2500162125 -1.1639873822e-015 0 5.2500591278 5.8458321291e-005 0
          5.2500934601 0.00013438356109 0 5.2498421669 0.00031404662877 0
          5.2499604225 -4.8097001127e-005 0 5.2497930527 -0.00018879727577 0
          5.250099659 0.00023411473376 0 5.2499184608 -9.3283626484e-005 0
          5.2499432564 0.00035676526022 0 5.2498440742 -0.00016333082749 0
          5.2495174408 -0.00045566208428 0 0 0 0
          5.2497358322 4.0501960029e-005 0 5.2496142387 -0.00039459121763 0
          5.2500734329 -4.1633604298e-016 0 5.2496938705 -0.00033719517523 0
          5.2495808601 0.00016159552615 0 5.2500071526 -5.1024417189e-005 0
          5.2501206398 7.1814705734e-005 0 5.2497634888 -0.000286034483 0
          5.2498874664 -0.00014417307102 0 5.2496576309 0.00030941862497 0
          5.2500514984 0.00035662582377 0 5.249958992 -9.1396432254e-005 0
          5.2501564026 0.00017399714852 0 5.2498207092 -0.00024288926215 0
          5.2497663498 0.00042332962039 0 5.2501540184 0.00031403286266 0
          5.2499251366 -0.00013197750377 0 5.2500591278 -5.8458321291e-005 0
          5.2499155998 0.0004864014918 0 5.2498674393 -0.00020777955069 0
          5.2501420975 1.5535791275e-016 0 5.2499995232 -9.6309253422e-005 0
          5.2496314049 -0.00056252250215 0 0 0 0
          5.2501983643 9.317202057e-005 0 5.2496323586 4.5957138354e-005 0
          5.2497363091 -0.00047060367069 0 5.2494087219 0.0002099849662 0
          5.2498044968 -0.0003973111161 0 5.2499046326 -0.00018095110136 0
          5.2500753403 0.00048931071069 0 5.2499585152 -0.00012773077469 0
          5.2502388954 0.00023425057589 0 5.2498517036 -0.00033724037348 0
          5.2494950294 0.00042176319403 0 5.2498884201 -0.0002845992276 0
          5.2496566772 0.00058461271692 0 5.2501206398 -7.1814705734e-005 0
          5.2500429153 -0.00010977023339 0 5.2502303123 -2.6391294058e-016 0
          5.2502264977 0.0004325430491 0 5.2499346733 -0.00016301230062 0
          5.2499899864 -0.00013292864605 0 5.2498736382 0.00067658070475 0
          5.2499160767 -0.00024174300779 0 5.2503013611 0.00012556454749 0
          5.2495412827 -0.00067608198151 0 0 0 0
          5.2496089935 -0.00057820527581 0 5.2495036125 5.6068343838e-005 0
          5.2496981621 -0.00048436474754 0 5.249958992 -0.00015492046077 0
          5.2503509521 0.00032335278229 0 5.2491612434 0.0002827035496 0
          5.2501063347 0.00068332842784 0 5.2499380112 -0.00020785385277 0
          5.2500934601 -0.00013438356109 0 5.2497868538 -0.00040173000889 0
          5.2492632866 0.00058593519498 0 5.2501983643 -9.317202057e-005 0
          5.2500219345 -0.00014983945584 0 5.2503476143 -4.8532764416e-016 0
          5.2494983673 0.00081917888019 0 5.2498588562 -0.00033168547088 0
          5.2503261566 0.00060547376052 0 5.2499547005 -0.00018382674898 0
          5.249979496 -0.00015820855333 0 5.250442028 0.00017339893384 0
          5.2498116493 0.00095242675161 0 5.2499113083 -0.0002738161711 0
          5.2501564026 -0.00017399714852 0 5.2505064011 0.00045319044148 0
          0 0 0 5.2499661446 -0.00017067353474 0
          5.2504067421 -0.00064225069946 0 5.2503013611 -0.00012556454749 0
          5.2500572205 -0.00018187564274 0 5.2504467964 -0.0005416116328 0
          5.2493348122 7.2236136475e-005 0 5.2499442101 -0.00022865581559 0
          5.2501482964 0.00096432352439 0 5.2503824234 -0.00045783582027 0
          5.2488074303 0.00038928937283 0 5.249997139 -0.00017528700118 0
          5.2505083084 2.0679537813e-016 0 5.2489323616 0.00082342542009 0
          5.250287056 -0.00038812143612 0 5.249961853 -0.00019576055638 0
          5.2502012253 -0.00032603961881 0 5.249270916 0.001157819177 0
          5.2504649162 0.00085568235954 0 5.2499723434 -0.00016984148533 0
          5.2506380081 0.00024304792169 0 5.250099659 -0.00023411473376 0
          5.2502388954 -0.00023425057589 0 5.2501354218 -0.00027104470064 0
          5.2497215271 0.0013501899084 0 5.2500143051 -0.00020986553864 0
          5.250442028 -0.00017339893384 0 5.2507252693 0.00064091320382 0
          5.2499680519 -0.00017524560099 0 0 0 0
          5.2481369972 -0.0010711842915 0 5.2500886917 -0.00022397909197 0
          5.249106884 9.6665949968e-005 0 5.2502055168 0.0013692495413 0
          5.249973774 -0.00018355388602 0 5.2483668327 -0.0007963431417 0
          5.2507324219 1.1818503806e-016 0 5.2487311363 -0.00065358140273 0
          5.2483010292 0.00054371013539 0 5.2484583855 0.001165290596 0
          5.2491064072 -0.0005199771258 0 5.2499642372 -0.00016766109911 0
          5.2509145737 0.00034369912464 0 5.2501540184 -0.00031403286266 0
          5.2506613731 0.0012160822516 0 5.2500534058 -0.00018729292788 0
          5.2503509521 -0.00032335278229 0 5.2494091988 -0.00040865887422 0
          5.2500314713 -0.00026754141436 0 5.2489433289 0.00164489483 0
          5.2506380081 -0.00024304792169 0 5.2499704361 -0.00021527895296 0
          5.24958992 0.0019220181275 0 5.2496218681 -0.00031879017479 0
          5.2510356903 0.00091120466823 0 5.250023365 -0.00016171119933 0
          5.2499518394 -0.00017433655739 0 5.2510485649 -3.3292248827e-015 0
          5.2497563362 -0.00024778890656 0 5.2502851486 0.0019512333674 0
          5.2546100616 -0.00042206898797 0 0 0 0