<?xml version="1.0"?>
<VTKFile type="PolyData" version="0.1" byte_order="LittleEndian" compressor="vtkZLibDataCompressor">
  <PolyData>
    <Piece NumberOfPoints="1071" NumberOfVerts="0" NumberOfLines="0" NumberOfStrips="0" NumberOfPolys="2000">
      <PointData>
        <DataArray type="Float32" Name="PRESSURE" format="ascii" RangeMin="-10.672106743" RangeMax="2.3942050934">
          0 0.0030260614585 0 -0.0041563306004 0 -0.0027025353629
          -0.0082399100065 -0.00080789945787 -0.002790419152 0 -0.0059469933622 -0.0086925476789
          -0.0017591360956 -0.0030477431137 -0.0048481943086 0 -0.0068886643276 -0.0083254463971
          -0.0012296899222 -0.0040387273766 -0.0057993633673 -0.0022804131731 -0.0047424575314 0
          -0.0068074492738 -0.003215033561 -0.0010845586658 -0.0075403060764 -0.0060178041458 -0.0019454084104
          -0.0039138258435 -0.005112234503 -0.0027157445438 -0.0064274598844 0 -0.00092028378276
          -0.0068332194351 -0.0016926561948 -0.0059094773605 -0.0033530683722 -0.0043737948872 -0.0052424785681
          -0.0023814896122 -0.0060392450541 0 -0.0038358096499 -0.006293527782 -0.00080479908502
          -0.0029716640711 -0.0046426593326 -0.0057079056278 -0.0015121749602 -0.0052439328283 -0.0021498142742
          -0.0034517184831 -0.0041750562377 0 -0.005723125767 -0.0027089561336 -0.0058995573781
          -0.00072649196954 -0.0047832601704 -0.0055093304254 -0.0013908189721 -0.0038227769546 -0.0019973076414
          -0.0051910500042 -0.0044015711173 -0.0031822882593 -0.0025369543582 -0.0048474841751 0
          -0.0054818042554 -0.0056125847623 -0.00068144692341 -0.0035681270529 -0.0053418572061 -0.0040991688147
          -0.0013213416096 -0.0030040040147 -0.0045480341651 -0.0051228716038 -0.0019115676405 -0.004870142322
          -0.0024411641061 -0.0038732206449 0 -0.0033963222522 -0.0052997847088 -0.0043002143502
          -0.0054010502063 -0.00066434690962 -0.0052077877335 -0.0012943425681 -0.004641095642 -0.0029043343384
          -0.005056457594 -0.0018769587623 -0.0037173128221 -0.004109156318 -0.0024015712552 -0.0048718601465
          -0.004444619175 -0.003299085889 -0.0051613678224 0 -0.0052426485345 -0.00068144692341
          -0.0051019364037 -0.0046998034231 -0.0013213416096 -0.0028627628926 -0.0039743813686 -0.0019115676405
          -0.0042889602482 -0.0049977554008 -0.0036276343744 -0.0032584101427 -0.0045479401015 -0.0024411641061
          -0.0048638922162 0 -0.0050540980883 -0.00072649196954 -0.004176968243 -0.005121873226
          -0.0038955374621 -0.0047368081287 -0.0029043343384 -0.0013908189721 -0.0050180018879 -0.0044249095954
          -0.0035901253577 -0.0019973076414 -0.0049477862194 -0.0046220966615 -0.003299085889 -0.0025369543582
          -0.0048520141281 -0.0041104122065 -0.0043349219486 -0.0038626547903 0 -0.0049685426056
          -0.0030040040147 -0.0047602113336 -0.0045275338925 -0.00080479908502 -0.0050277374685 -0.0036276343744
          -0.0049503641203 -0.0015121749602 -0.0021498142742 -0.0049056415446 -0.0033963222522 -0.0046758460812
          -0.004082844127 -0.0042807096615 -0.0044574686326 -0.0048390259035 -0.0038955374621 -0.0027089561336
          -0.004605404567 -0.0037173128221 -0.004775153473 -0.0031822882593 0 -0.0048975204118
          -0.004952264484 -0.00092028378276 -0.0042585614137 -0.0016926561948 -0.0048943953589 -0.0041104122065
          -0.0044147949666 -0.0023814896122 -0.0035681270529 -0.0048698037863 -0.0047155329958 -0.0039743813686
          -0.0045527280308 -0.0029716640711 -0.0048261908814 -0.0046653342433 -0.0038732206449 -0.0042807096615
          -0.0047849444672 -0.0034517184831 -0.0043978234753 -0.004176968243 0 -0.0048354277387
          -0.0045203948393 -0.0048895129003 -0.0010845586658 -0.0048463637941 -0.0019454084104 -0.0038227769546
          -0.0047457912005 -0.004109156318 -0.0046276017092 -0.0027157445438 -0.0048386943527 -0.0033530683722
          -0.004814024549 -0.0044147949666 -0.0043349219486 -0.0045082191937 -0.0047127148136 -0.0040991688147
          -0.0042889602482 -0.0047918097116 -0.0038358096499 -0.0046043540351 0 -0.0047777001746
          -0.0012296899222 -0.0048349341378 -0.0022804131731 -0.0043002143502 -0.0046878708526 -0.0048032524064
          -0.0047701029107 -0.0041750562377 -0.0044574686326 -0.003215033561 -0.0048108831979 -0.0045203948393
          -0.0044249095954 -0.0045966156758 -0.0048027182929 -0.0039138258435 -0.0047518773936 -0.0044015711173
          -0.004444619175 -0.0046726097353 -0.0047973585315 -0.0043737948872 -0.0045527280308 -0.004738395568
          -0.0047203982249 -0.0045480341651 0 -0.0046043540351 -0.0045275338925 -0.0017591360956
          -0.0047849258408 -0.0046426593326 -0.0047912141308 -0.0030477431137 -0.0047625913285 -0.0045479401015
          -0.0046690888703 -0.0047851600684 -0.0040387273766 -0.0047832601704 -0.0047424575314 -0.0047923759557
          -0.0047864126973 -0.004641095642 -0.0047302944586 -0.004605404567 -0.0046276017092 -0.005112234503
          -0.0048028966412 -0.0046220966615 -0.0046726097353 -0.004783345852 -0.0048474841751 -0.0046598706394
          0 -0.0052424785681 -0.0047365296632 -0.0048114438541 -0.0046998034231 -0.00080789945787
          -0.0047309957445 -0.002790419152 -0.0047223265283 -0.0047605601139 -0.0048481943086 -0.004870142322
          -0.0047819097526 -0.0046653342433 -0.0048194392584 -0.0052439328283 -0.0046878708526 -0.0057993633673
          -0.0046758460812 -0.0047831623815 -0.0047302944586 -0.0047368081287 -0.0048096384853 -0.0060178041458
          -0.004826426506 -0.0051910500042 -0.0048718601465 -0.004787130747 -0.0059094773605 -0.0048329159617
          0 -0.0045924885198 -0.0041563306004 -0.0046872305684 -0.0047127148136 -0.0046807490289
          -0.0082399100065 -0.0047155329958 -0.0047602113336 -0.004738395568 -0.0051228716038 -0.0086925476789
          -0.0047363955528 -0.0048315199092 -0.0057079056278 -0.0048538325354 -0.0047819097526 -0.0083254463971
          -0.0048638922162 -0.0047754268162 -0.0048188799992 -0.0075403060764 -0.0048710913397 -0.0055093304254
          -0.005056457594 -0.0048419302329 -0.0047457912005 -0.0047518773936 -0.004775153473 -0.0048577538691
          -0.0068332194351 -0.004783345852 -0.0045144306496 -0.0048520141281 0 0.0030260614585
          -0.0046348539181 -0.0027025353629 -0.0046364874579 -0.0053418572061 -0.0048829489388 -0.0059469933622
          -0.0047123264521 -0.006293527782 -0.0048315199092 -0.0048924172297 -0.0049977554008 -0.0068886643276
          -0.0047698365524 -0.0047701029107 -0.0047849444672 -0.0052077877335 -0.0048996857367 -0.0058995573781
          -0.0048321639188 -0.004920726642 -0.0048390259035 -0.0047864126973 -0.0068074492738 -0.004826426506
          -0.0049477862194 -0.0064274598844 -0.0048882509582 -0.0044215172529 -0.0045775678009 -0.0056125847623
          -0.0049399631098 -0.0045886011794 -0.0051019364037 -0.0048829489388 -0.0049381325953 -0.0060392450541
          -0.0047918097116 -0.004688505549 -0.0047912141308 -0.0048261908814 -0.0047675650567 -0.0048194392584
          -0.0049056415446 -0.0049647674896 -0.0054010502063 -0.005723125767 -0.004978814628 -0.0048514697701
          -0.0050180018879 -0.0048710913397 -0.0049270405434 -0.0050064325333 -0.0054818042554 -0.0047973585315
          -0.004814024549 -0.0049399631098 -0.0052426485345 -0.0043091131374 -0.0045140199363 -0.0048698037863
          -0.0048114438541 -0.0045368028805 -0.0049941786565 -0.0048538325354 -0.0046658352949 -0.0049503641203
          -0.004770568572 -0.0050418376923 -0.0052997847088 -0.005121873226 -0.0050490624271 -0.004920726642
          -0.0048794532195 -0.0048027182929 -0.0048386943527 -0.0048028966412 -0.0049772784114 -0.0048329159617
          -0.0048943953589 -0.0050064325333 -0.0051613678224 -0.0050864499062 -0.0041721295565 -0.0050277374685
          -0.0048924172297 -0.0044436701573 -0.0044818893075 -0.0050641382113 -0.0046464046463 -0.0051360488869
          -0.0050540980883 -0.004978814628 -0.0047820103355 -0.0047923759557 -0.0048108831979 -0.0051354826428
          -0.0048463637941 -0.0048096384853 -0.0049197818153 -0.0048577538691 -0.004952264484 -0.0050864499062
          -0.0050428537652 -0.005184403155 -0.0049685426056 -0.0049381325953 -0.00400519697 -0.0043674227782
          -0.0051520750858 -0.0047851600684 -0.0044264788739 -0.0047831623815 -0.0048032524064 -0.0052532190457
          -0.004634199664 -0.0050490624271 -0.0048188799992 -0.0048895129003 -0.0048069078475 -0.0052424133755
          -0.0048882509582 -0.0048975204118 -0.0049776053056 -0.005184403155 -0.0049941786565 -0.0053049474955
          -0.0051286462694 -0.0047625913285 -0.0047605601139 -0.0047754268162 -0.0048349341378 -0.0052625807002
          -0.0038031295408 -0.0048354277387 -0.0048321639188 -0.0042887236923 -0.0051354826428 -0.0053999517113
          -0.0043762261048 -0.0046362248249 -0.0049270405434 -0.0053744218312 -0.0048531172797 -0.0047223265283
          -0.0053049474955 -0.0050602406263 -0.0047363955528 -0.0047849258408 -0.0050641382113 -0.0047698365524
          -0.0047777001746 -0.0054528438486 -0.0052408445626 -0.0048514697701 -0.0052424133755 -0.005400757771
          -0.003561868798 -0.005583666265 -0.0042153862305 -0.0049772784114 -0.0043417667039 -0.0046642627567
          -0.0046807490289 -0.0047365296632 -0.0055360384285 -0.0047123264521 -0.0047203982249 -0.0049328315072
          -0.0047675650567 -0.0054528438486 -0.0051520750858 -0.0051781767979 -0.0056325583719 -0.0048794532195
          -0.005387365818 -0.0053744218312 -0.0046872305684 -0.0046364874579 -0.0046598706394 -0.0055720829405
          -0.0058124712668 -0.0050428537652 -0.0032802321948 -0.004688505549 -0.0041625481099 -0.0043417881243
          -0.0047375988215 -0.0057312152348 -0.004770568572 -0.005064860452 -0.0052625807002 -0.0056325583719
          -0.0053465710953 -0.0049197818153 -0.0058475024998 -0.0046348539181 -0.0045924885198 -0.0045886011794
          -0.0055784354918 -0.0055360384285 -0.0051286462694 -0.0046658352949 -0.0060947695747 -0.0057821106166
          -0.0029629610945 -0.0041573909111 -0.0047820103355 -0.0044078137726 -0.0059623764828 -0.0048872339539
          -0.005400757771 -0.0058475024998 -0.0052781039849 -0.0045144306496 -0.0049776053056 -0.0045775678009
          -0.0045368028805 -0.0055875224061 -0.0060987211764 -0.0046464046463 -0.0057312152348 -0.0058274399489
          -0.0052408445626 -0.0064384560101 -0.0048069078475 -0.0060359640047 -0.0044215172529 -0.0026258588769
          -0.0042465850711 -0.0055720829405 -0.0045916144736 -0.0045140199363 -0.0062288739718 -0.0050602406263
          -0.0060987211764 -0.0051623838954 -0.0044818893075 -0.0056168879382 -0.004634199664 -0.0063827652484
          -0.0059335860424 -0.005387365818 -0.0059623764828 -0.0061523062177 -0.0048531172797 -0.0068494905718
          -0.0043091131374 -0.0044436701573 -0.006337613333 -0.0057821106166 -0.0023042662069 -0.0044264788739
          -0.0051781767979 -0.0045079393312 -0.0049766213633 -0.0063827652484 -0.0065246312879 -0.0056405365467
          -0.0046362248249 -0.0061492375098 -0.006688406691 -0.0055784354918 -0.0064333677292 -0.0062288739718
          -0.0041721295565 -0.0049328315072 -0.0065779089928 -0.0043674227782 -0.007329581771 -0.0066890721209
          -0.0043762261048 -0.0060359640047 -0.0053465710953 -0.0020668285433 -0.006688406691 -0.0050685405731
          -0.006834753789 -0.005695452448 -0.0046642627567 -0.0064430986531 -0.00400519697 -0.0069799087942
          -0.0058274399489 -0.0069917384535 -0.005064860452 -0.0065246312879 -0.0071606608108 -0.0042887236923
          -0.0071405433118 -0.0078726299107 -0.0043417667039 -0.0055875224061 -0.0070899864659 -0.006337613333
          -0.0047375988215 -0.0069917384535 -0.0020376266912 -0.0071309609339 -0.0061328890733 -0.0038031295408
          -0.0069567798637 -0.007759955246 -0.0061523062177 -0.0042153862305 -0.0082712909207 -0.0052781039849
          -0.0072491243482 -0.006834753789 -0.0082298154011 -0.0043417881243 -0.0078965611756 -0.0084595214576
          -0.0059335860424 -0.0066890721209 -0.0075388876721 -0.0048872339539 -0.003561868798 -0.0072491243482
          -0.0073660756461 -0.0024315072224 -0.0041625481099 -0.0080264620483 -0.0090864980593 -0.0065779089928
          -0.0056168879382 -0.0098884338513 -0.0071309609339 -0.0073874583468 -0.010277733207 -0.0044078137726
          -0.0098223378882 -0.0090509001166 -0.0064333677292 -0.0089393882081 -0.0032802321948 -0.0070899864659
          -0.0051623838954 -0.0080392183736 -0.0041573909111 -0.0073874583468 -0.0074688899331 -0.0061492375098
          -0.0036102160811 -0.01126312837 -0.0071405433118 -0.012590896338 -0.0045916144736 -0.013295922428
          -0.0073660756461 -0.0072916485369 -0.013403449208 -0.012234315276 -0.0029629610945 -0.0071606608108
          -0.0095780799165 -0.0056405365467 -0.010433430783 -0.0075388876721 -0.0042465850711 -0.0086172232404
          -0.0072916485369 -0.0069799087942 -0.0078965611756 -0.0073436587118 -0.0049766213633 -0.006171353627
          -0.01664955914 -0.018253896385 -0.0074688899331 -0.018721852452 -0.0067907702178 -0.018303005025
          -0.0026258588769 -0.0082298154011 -0.0064430986531 -0.015963576734 -0.0099334418774 -0.0080392183736
          -0.0045079393312 -0.012682005763 -0.009367255494 -0.0067907702178 -0.0082712909207 -0.005695452448
          -0.0089393882081 -0.0068854400888 -0.011089158244 -0.0254474096 -0.027287764475 -0.0023042662069
          -0.0073436587118 -0.027345944196 -0.0056482790969 -0.026060378179 -0.007759955246 -0.0098223378882
          -0.02187474817 -0.0050685405731 -0.0086172232404 -0.0099637769163 -0.016264224425 -0.010557480156
          -0.010277733207 -0.0056482790969 -0.0069567798637 -0.010433430783 -0.0060388972051 -0.0020668285433
          -0.019937230274 -0.0068854400888 -0.039626311511 -0.041569519788 -0.0035734041594 -0.041068807244
          -0.0098884338513 -0.012234315276 -0.038513753563 -0.0061328890733 -0.031518876553 -0.009367255494
          -0.009477599524 -0.022310994565 -0.013403449208 -0.0090864980593 -0.0035734041594 -0.012860830873
          -0.012682005763 -0.0020376266912 -0.0049598240294 -0.0060388972051 -0.035240504891 -0.013295922428
          -0.062260728329 -0.064018301666 -0.00029586997698 -0.015963576734 -0.0080264620483 -0.062983080745
          -0.058845568448 -0.010557480156 -0.0082843834534 -0.047755982727 -0.033056799322 -0.012590896338
          -0.018303005025 -0.0024315072224 -0.00029586997698 -0.016264224425 -0.017826937139 -0.0043854881078
          -0.0049598240294 -0.018721852452 -0.01126312837 -0.02187474817 -0.061029251665 -0.098155014217
          0.0042271106504 -0.099211730063 -0.098170109093 -0.09264420718 -0.012860830873 -0.0062349261716
          -0.075969874859 -0.018253896385 -0.026060378179 -0.0036102160811 -0.052965391427 0.0042271106504
          -0.022310994565 -0.02885293588 -0.0064719822258 -0.027345944196 -0.01664955914 -0.0043854881078
          -0.031518876553 -0.10370316356 -0.15482848883 0.0092292595655 -0.15441995859 -0.15505956113
          -0.017826937139 -0.14976115525 -0.027287764475 -0.0033507973421 -0.006171353627 -0.12637980282
          -0.038513753563 -0.091027401388 -0.033056799322 0.0092292595655 -0.053177051246 -0.0254474096
          -0.041068807244 -0.016619704664 -0.0064719822258 -0.047755982727 0.011496821418 -0.17336276174
          -0.24406158924 -0.24138620496 -0.24778431654 -0.02885293588 -0.041569519788 -0.011089158244
          -0.24740225077 -0.058845568448 -0.00050051056314 -0.21815781295 -0.16520284116 -0.052965391427
          0.011496821418 -0.10559737682 -0.039626311511 -0.062983080745 -0.016619704664 -0.046471025795
          -0.075969874859 0.0028216030914 -0.28585964441 -0.38433969021 -0.064018301666 -0.37960731983
          -0.053177051246 -0.019937230274 -0.40074142814 -0.09264420718 -0.41577604413 0.00099623703863
          -0.38753861189 -0.091027401388 -0.31285774708 0.0028216030914 -0.062260728329 -0.098170109093
          -0.21873010695 -0.12637980282 -0.046471025795 -0.12315519154 -0.035240504891 -0.040525272489
          -0.099211730063 -0.46611604095 -0.10559737682 -0.60492610931 -0.60248190165 -0.14976115525
          -0.65656554699 -0.015658477321 -0.7043043375 -0.69391691685 -0.16520284116 -0.098155014217
          -0.59827667475 -0.040525272489 -0.15505956113 -0.44780567288 -0.21815781295 -0.12315519154
          -0.28908139467 -0.061029251665 -0.15441995859 -0.16005222499 -0.21873010695 -0.75432419777
          -0.24740225077 -0.95340907574 -0.97023051977 -1.0917327404 -0.093262240291 -1.1887019873
          -0.31285774708 -1.2202934027 -0.15482848883 -0.16005222499 -0.24778431654 -1.1159900427
          -0.87723183632 -0.38753861189 -0.28908139467 -0.10370316356 -0.60625249147 -0.24138620496
          -0.41620382667 -0.44780567288 -0.41577604413 -1.2181274891 -1.510212183 -1.5935403109
          -1.8271657228 -0.31625780463 -1.9319335222 -0.24406158924 -0.59827667475 -1.9708819389
          -0.40074142814 -0.41620382667 -1.8574368954 -0.69391691685 -1.4990155697 -0.60625249147
          -0.17336276174 -0.37960731983 -1.05958426 -0.87723183632 -0.7043043375 -0.79734712839
          -1.9667081833 -2.3977410793 -2.6302101612 -0.69525253773 -2.9668052197 -0.38433969021
          -2.8616850376 -1.1159900427 -0.65656554699 -2.6721408367 -0.79734712839 -2.5027654171
          -1.2202934027 -0.28585964441 -2.0762281418 -1.05958426 -0.60248190165 -1.4926314354
          -1.1887019873 -1.4990155697 -1.1631180048 -3.1193332672 -3.7382235527 -0.60492610931
          -4.2472491264 -1.0870860815 -4.6095991135 -1.8574368954 -3.9740867615 -1.0917327404
          -3.0248734951 -1.1631180048 -2.5821835995 -0.46611604095 -1.9708819389 -2.2063269615
          -0.97023051977 -1.4926314354 -1.6308525801 -1.9319335222 -2.0762281418 -1.301789403
          -0.95340907574 -4.6190137863 -5.4133529663 -6.1920137405 -1.3668550253 -2.5027654171
          -6.3929991722 -1.8271657228 -5.1972317696 -2.8856594563 -1.301789403 -0.75432419777
          -1.8298693895 -2.6721408367 -1.5935403109 -1.8479579687 -1.6308525801 -1.6067646742
          -2.8616850376 -2.2063269615 -1.1206139326 -1.510212183 -5.9210224152 -6.4297528267
          -1.2628773451 -2.5821835995 -7.2571091652 -2.9668052197 -8.5397605896 -8.6482830048
          -1.1206139326 -1.2181274891 -3.8760638237 -3.0248734951 0.61869221926 -2.6302101612
          -1.6067646742 0.17173692584 -2.0285613537 -3.9740867615 -1.8479579687 -2.3977410793
          -1.4708697796 -4.6095991135 -6.1656832695 -1.8298693895 -6.8464560509 -1.0589766502
          -8.4996795654 -10.672106743 -9.8055515289 -1.9667081833 -1.4708697796 -2.873395443
          -2.8856594563 -4.2472491264 2.3942050934 -2.0285613537 1.0925116539 -5.1972317696
          -1.5956099033 0.17173692584 -3.7382235527 -1.5631437302 -6.3929991722 0.61869221926
          -1.1970477104 -3.1193332672 -1.5631437302 -3.8760638237 -6.1920137405 -1.5956099033
          -8.6482830048 -5.4133529663 1.0925116539 -8.5397605896 2.3942050934 -4.6190137863
          -7.2571091652 -2.873395443 -9.8055515289 -6.4297528267 -10.672106743 -5.9210224152
          -8.4996795654 -6.8464560509 -6.1656832695
        </DataArray>
        <DataArray type="Float32" Name="VELOCITY" NumberOfComponents="3" ComponentName0="X-VELOCITY" ComponentName1="Y-VELOCITY" ComponentName2="Z-VELOCITY" format="ascii" RangeMin="0" RangeMax="7.5">
          0 0 0 0 0 0
          5.2662830353 0.0038251110818 0 5.2613010406 0.0035806135274 0
          5.2428302765 0.00687203696 0 0 0 0
          5.258061409 0.0017341539497 0 5.2470164299 0.0031501720659 0
          5.2483420372 0.0027269488201 0 5.2505326271 0.0017156213289 0
          0 0 0 5.2548694611 0.0014098471729 0
          5.2499837875 0.0027329716831 0 5.2503056526 0.0018905757461 0
          5.2496519089 0.00170535082 0 5.2474637032 0.0024327833671 0
          0 0 0 5.2531065941 0.00081025768304 0
          5.248632431 0.0019460608019 0 5.2502570152 0.0014747515088 0
          5.2501416206 0.0011448012665 0 5.2492203712 0.0016316729598 0
          5.2502379417 0.001093818224 0 5.2482876778 0.0012263426324 0
          0 0 0 5.2496085167 0.0012933621183 0
          5.2487316132 0.0013779879082 0 5.2520451546 0.00048414294724 0
          5.2502636909 0.00077428552322 0 5.2491354942 0.0012316220673 0
          5.2498283386 0.00099821691401 0 5.2502188683 0.00079480995191 0
          5.2494239807 0.0010392266558 0 0 0 0
          5.2482647896 0.00086325785378 0 5.2486467361 0.00095069844974 0
          5.2514023781 0.00030087117921 0 5.2489886284 0.00090553151676 0
          5.2502465248 0.0005309190019 0 5.249625206 0.00084233138477 0
          5.2499427795 0.00075860274956 0 5.2501893044 0.00057344167726 0
          5.2492613792 0.00079781591194 0 0 0 0
          5.2484078407 0.00053709495114 0 5.2497606277 0.000666521315 0
          5.2509918213 0.00019792381499 0 5.2486696243 0.00062630348839 0
          5.2494678497 0.0006703416002 0 5.2499966621 0.00056995515479 0
          5.2501935959 0.00037244780106 0 5.24893713 0.00062584184343 0
          5.2501540184 0.00041569798486 0 5.2491726875 0.00057212921092 0
          5.2496199608 0.00054700969486 0 5.2498478889 0.00051805266412 0
          5.2484998703 0.00032074132469 0 0 0 0
          5.2493672371 0.00049520999892 0 5.2507123947 0.00013739704445 0
          5.2486982346 0.00037998563494 0 5.2500181198 0.00042666576337 0
          5.2501416206 0.00026802706998 0 5.2489161491 0.00039134858525 0
          5.2497296333 0.0004366581561 0 5.2491230965 0.00036698550684 0
          5.250120163 0.00030504120514 0 5.2499032021 0.00039863117854 0
          5.2495222092 0.00041406988748 0 5.2493052483 0.00032449589344 0
          5.250023365 0.00032057022327 0 5.2485585213 0.00015364012506 0
          0 0 0 5.2505125999 9.9450480775e-005 0
          5.2487258911 0.00018130218086 0 5.249642849 0.00033747262205 0
          5.2500991821 0.00019789693761 0 5.2498078346 0.00034364339081 0
          5.2489147186 0.00018854996597 0 5.2494587898 0.00027611802216 0
          5.2499375343 0.00030600518221 0 5.2500901222 0.00022777597769 0
          5.2491021156 0.00017898653459 0 5.2500219345 0.00024344201665 0
          5.2492742538 0.00016019634495 0 5.2497353554 0.00027031142963 0
          5.2485899925 2.7782697611e-015 0 5.249584198 0.00022843040642 0
          0 0 0 5.2498636246 0.00026868766872 0
          5.2503647804 7.4356990808e-005 0 5.2487630844 1.6878515314e-015 0
          5.2500658035 0.0001500970684 0 5.2489485741 -9.7517500319e-017 0
          5.249958992 0.00023622553272 0 5.2494244576 0.00013775094703 0
          5.2500648499 0.00017408608983 0 5.2491292953 -4.6924640602e-016 0
          5.2496848106 0.00018533764523 0 5.2498054504 0.0002144875325 0
          5.249294281 6.2101528135e-016 0 5.2500171661 0.00018841247947 0
          5.2499036789 0.00021050024952 0 5.2495508194 0.00011501428526 0
          0 0 0 5.2485585213 -0.00015364012506 0
          5.2502512932 5.7240242313e-005 0 5.2487258911 -0.00018130218086 0
          5.2500391006 0.0001174779245 0 5.2499728203 0.00018518182333 0
          5.2489147186 -0.00018854996597 0 5.2494387627 9.261328014e-016 0
          5.2497639656 0.0001486834517 0 5.2491021156 -0.00017898653459 0
          5.2498588562 0.00017009298608 0 5.250043869 0.0001373905252 0
          5.2496542931 9.4067152531e-005 0 5.249560833 5.4266891595e-016 0
          5.249932766 0.00016700233391 0 5.2492742538 -0.00016019634495 0
          5.2500119209 0.00015032345254 0 5.2484998703 -0.00032074132469 0
          0 0 0 5.2486982346 -0.00037998563494 0
          5.2498259544 0.00011900809477 0 5.250161171 4.5496446546e-005 0
          5.2497382164 7.5981814007e-005 0 5.2499818802 0.00014936100342 0
          5.2494244576 -0.00013775094703 0 5.2489161491 -0.00039134858525 0
          5.2500162125 9.5750510809e-005 0 5.2498998642 0.00013631512411 0
          5.2496619225 6.8707723379e-016 0 5.2491230965 -0.00036698550684 0
          5.2500257492 0.00011345718667 0 5.2499542236 0.00013608795416 0
          5.2495508194 -0.00011501428526 0 5.2493052483 -0.00032449589344 0
          5.250005722 0.00012559832248 0 5.2498059273 6.1169492255e-005 0
          5.2498755455 9.6131690952e-005 0 5.2497444153 3.4251786808e-015 0
          5.2484078407 -0.00053709495114 0 0 0 0
          5.2494587898 -0.00027611802216 0 5.2499876022 0.00012613112631 0
          5.2499318123 0.0001120556044 0 5.2486696243 -0.00062630348839 0
          5.2500867844 3.7645932025e-005 0 5.2496542931 -9.4067152531e-005 0
          5.2499952316 8.2362159446e-005 0 5.24893713 -0.00062584184343 0
          5.2491726875 -0.00057212921092 0 5.2500090599 9.9713855889e-005 0
          5.249584198 -0.00022843040642 0 5.2499713898 0.00011604047177 0
          5.2498106956 3.6688423194e-015 0 5.2498598099 4.9654376198e-005 0
          5.249915123 7.9573823314e-005 0 5.2499995232 0.000111995927 0
          5.2497382164 -7.5981814007e-005 0 5.2493672371 -0.00049520999892 0
          5.2499580383 9.63233324e-005 0 5.2496848106 -0.00018533764523 0
          5.2499914169 0.00011380152864 0 5.2495222092 -0.00041406988748 0
          5.2482647896 -0.00086325785378 0 0 0 0
          5.2500219345 3.2825628296e-005 0 5.2486467361 -0.00095069844974 0
          5.2498645782 3.0883925047e-016 0 5.2489886284 -0.00090553151676 0
          5.249973774 7.5886571722e-005 0 5.2498059273 -6.1169492255e-005 0
          5.2499041557 4.1279403376e-005 0 5.2492613792 -0.00079781591194 0
          5.249642849 -0.00033747262205 0 5.2499918938 9.4810027804e-005 0
          5.249985218 0.00010574135376 0 5.2497639656 -0.0001486834517 0
          5.2499480247 6.8841334723e-005 0 5.2494678497 -0.0006703416002 0
          5.2499918938 0.00010840770119 0 5.2499804497 8.8472712378e-005 0
          5.2497353554 -0.00027031142963 0 5.2498598099 -4.9654376198e-005 0
          5.2499938011 0.00011161769362 0 5.2496199608 -0.00054700969486 0
          5.2499094009 -2.4262888197e-016 0 5.2498259544 -0.00011900809477 0
          5.2482876778 -0.0012263426324 0 0 0 0
          5.2499418259 3.5854907765e-005 0 5.249961853 3.0557901482e-005 0
          5.2487316132 -0.0013779879082 0 5.2499489784 7.5710442616e-005 0
          5.2491354942 -0.0012316220673 0 5.2497296333 -0.0004366581561 0
          5.249997139 0.00010478327749 0 5.2498054504 -0.0002144875325 0
          5.2499771118 6.3619627326e-005 0 5.2494239807 -0.0010392266558 0
          5.2499723434 9.8382457509e-005 0 5.249625206 -0.00084233138477 0
          5.249982357 0.00011475105566 0 5.2499041557 -4.1279403376e-005 0
          5.2498755455 -9.6131690952e-005 0 5.2499470711 2.3204725935e-015 0
          5.2500009537 8.8356784545e-005 0 5.2498078346 -0.00034364339081 0
          5.2498588562 -0.00017009298608 0 5.2499947548 0.00011977652321 0
          5.2497606277 -0.000666521315 0 5.2499752045 3.3263160731e-005 0
          5.2474637032 -0.0024327833671 0 0 0 0
          5.248632431 -0.0019460608019 0 5.2499008179 3.064368866e-005 0
          5.2492203712 -0.0016316729598 0 5.2498636246 -0.00026868766872 0
          5.2500047684 6.3905841671e-005 0 5.249917984 8.1894744653e-005 0
          5.2500090599 0.00011356623872 0 5.2498478889 -0.00051805266412 0
          5.249915123 -7.9573823314e-005 0 5.2496085167 -0.0012933621183 0
          5.2499489784 0.00011097546667 0 5.2499418259 -3.5854907765e-005 0
          5.2498998642 -0.00013631512411 0 5.2499818802 1.3125621492e-015 0
          5.2499694824 0.00013197245426 0 5.2498283386 -0.00099821691401 0
          5.2500224113 9.6453302831e-005 0 5.2499032021 -0.00039863117854 0
          5.2499036789 -0.00021050024952 0 5.2500071526 3.3534513932e-005 0
          5.2499947548 0.00013950793073 0 5.2499427795 -0.00075860274956 0
          5.2499480247 -6.8841334723e-005 0 5.2500333786 7.0119858719e-005 0
          0 0 0 5.2499375343 -0.00030600518221 0
          5.2505326271 -0.0017156213289 0 5.2499752045 -3.3263160731e-005 0
          5.2499318123 -0.0001120556044 0 5.2499837875 -0.0027329716831 0
          5.2498350143 3.3118492865e-005 0 5.2499966621 -0.00056995515479 0
          5.2500209808 0.00013342958118 0 5.2503056526 -0.0018905757461 0
          5.2498779297 9.5150600828e-005 0 5.249932766 -0.00016700233391 0
          5.2500157356 -1.2765284147e-015 0 5.2499184608 0.00013408777886 0
          5.2502570152 -0.0014747515088 0 5.2500181198 -0.00042666576337 0
          5.2502379417 -0.001093818224 0 5.2499527931 0.0001621672709 0
          5.2500457764 0.00011400914809 0 5.249958992 -0.00023622553272 0
          5.250041008 3.6911584175e-005 0 5.2499580383 -9.63233324e-005 0
          5.2499771118 -6.3619627326e-005 0 5.2502188683 -0.00079480995191 0
          5.2499928474 0.00017325369117 0 5.2499542236 -0.00013608795416 0
          5.2500071526 -3.3534513932e-005 0 5.2500658035 8.3224447735e-005 0
          5.250023365 -0.00032057022327 0 0 0 0
          5.2428302765 -0.00687203696 0 5.2501893044 -0.00057344167726 0
          5.2497587204 3.8247038901e-005 0 5.2500352859 0.00016686014715 0
          5.2499728203 -0.00018518182333 0 5.2470164299 -0.0031501720659 0
          5.2500519753 -1.0906065886e-015 0 5.2483420372 -0.0027269488201 0
          5.2498245239 0.00011690561223 0 5.2498774529 0.00017033996119 0
          5.2496519089 -0.00170535082 0 5.2500219345 -0.00024344201665 0
          5.2500796318 4.3917083531e-005 0 5.2499804497 -8.8472712378e-005 0
          5.2500739098 0.00014324080257 0 5.2501540184 -0.00041569798486 0
          5.2500047684 -6.3905841671e-005 0 5.2501416206 -0.0011448012665 0
          5.2499713898 -0.00011604047177 0 5.2499289513 0.00020883165416 0
          5.250041008 -3.6911584175e-005 0 5.2499818802 -0.00014936100342 0
          5.2499895096 0.00022497490863 0 5.2502636909 -0.00077428552322 0