<?xml version="1.0"?>
<VTKFile type="PolyData" version="0.1" byte_order="LittleEndian" compressor="vtkZLibDataCompressor">
  <PolyData>
    <Piece NumberOfPoints="1071" NumberOfVerts="0" NumberOfLines="0" NumberOfStrips="0" NumberOfPolys="2000">
      <PointData>
        <DataArray type="Float32" Name="PRESSURE" format="ascii" RangeMin="-8.7497062683" RangeMax="0.0013818412554">
          0 0.0001753851684 0 -5.9311623772e-005 0 0.00016621955729
          -0.00013746017066 8.8803797553e-005 7.4014737038e-005 0 9.9113480246e-005 -0.00020001057419
          -9.5279006928e-005 -0.00013733332162 1.6166934074e-005 0 3.4852586396e-005 -0.00023224267352
          5.5260975387e-006 -0.00016338691057 -5.1904775319e-005 -2.628132097e-005 -0.00018074671971 0
          -4.146622814e-006 -6.4083906182e-005 -4.1243165469e-005 -0.00023091533512 -0.00011466474825 -7.8089091403e-005
          -0.00010004493379 -0.00018921625451 -0.00011129351333 -8.2682481661e-006 0 -3.2063999242e-005
          -0.00019710580818 -7.1888745879e-005 -0.00016702686844 -0.00014072940394 -0.00012996609439 -0.00018846493913
          -0.00011187211931 2.550890531e-005 0 -0.00016538282216 -0.00013367738575 -4.4082495151e-005
          -0.00015052661183 -0.00015169833205 -0.00021140706667 -8.97797363e-005 -0.00017944227147 -0.00013542007946
          -0.00018665255629 -0.0001844050712 0 9.7712574643e-005 -0.00018117438594 -4.3530602852e-005
          -5.0772545364e-005 -0.0001651673374 -0.00025615468621 -0.00010287710029 -0.00021943270986 -0.00015627441462
          -0.00016502595099 -0.00019749042985 -0.00022689960315 -0.00021200903575 -0.00017256457068 0
          0.00020826536638 7.0598551247e-005 -5.7456854847e-005 -0.00027252588188 -0.00031548333936 -0.00024842168204
          -0.00011444994016 -0.00027089868672 -0.00020528052119 -0.00015081521997 -0.00017395304167 -0.00017885067791
          -0.00023759824398 -0.00031795611721 0 -0.00033386691939 0.0003569725086 -0.00027362752007
          0.00020520077669 -7.1966700489e-005 -0.00041106241406 -0.00014024142001 -0.00020994085935 -0.00030708071426
          -0.00014661299065 -0.00021345491405 -0.00040180547512 -0.00036294653546 -0.00029636183172 -0.00019299032283
          -0.00029571031337 -0.00038433232112 0.0005426722928 0 0.00035377353197 -5.7456854847e-005
          -0.00057555775857 -0.00021626148373 -0.00011444994016 -0.00039363713586 -0.00047531485325 -0.00017395304167
          -0.00040695254575 -0.00016904654331 -0.00047141697723 -0.00051115901442 -0.00031656015199 -0.00023759824398
          -0.00023042412067 0 0.00076080363942 -5.0772545364e-005 -0.00055424548918 0.00050281733274
          -0.00057023914997 -0.00023381930077 -0.00030708071426 -0.00010287710029 -0.00085868383758 -0.00044907690608
          -0.00065665965667 -0.00015627441462 -0.00024598871823 -0.00034074494033 -0.00038433232112 -0.00021200903575
          -0.00031755075906 -0.00068194803316 -0.00063703465275 -0.00084031996084 0 0.00099861680064
          -0.00027089868672 -0.00028112274595 -0.00048847630387 -4.4082495151e-005 0.00062492035795 -0.00047141697723
          -0.0013367758365 -8.97797363e-005 -0.00013542007946 -0.00042387557914 -0.00033386691939 -0.00037877055001
          -0.0010754156392 -0.0008058854728 -0.00071996694896 -0.00049954856513 -0.00057023914997 -0.00018117438594
          -0.00052604707889 -0.00040180547512 -0.00039338922943 -0.00022689960315 0 0.0012264156248
          0.00066683103796 -3.2063999242e-005 -0.0013790079392 -7.1888745879e-005 -0.002127593616 -0.00068194803316
          -0.00093792000553 -0.00011187211931 -0.00027252588188 -0.00077981495997 -0.00045398276416 -0.00047531485325
          -0.00079684110824 -0.00015052661183 -0.00085390923778 -0.00056918541668 -0.00031795611721 -0.0008058854728
          -0.0006369582261 -0.00018665255629 -0.0017725644866 -0.00055424548918 0 0.0013818412554
          -0.0010681247804 0.00052884372417 -4.1243165469e-005 -0.0034131661523 -7.8089091403e-005 -0.00021943270986
          -0.00061663321685 -0.00036294653546 -0.00086040556198 -0.00011129351333 -0.0014418067876 -0.00014072940394
          -0.0015139521565 -0.00093792000553 -0.00063703465275 -0.0022821584716 -0.00064339884557 -0.00024842168204
          -0.00040695254575 -0.0011358076008 -0.00016538282216 -0.0011782550719 0 0.0013419718016
          5.5260975387e-006 2.9343302231e-005 -2.6281319151e-005 -0.00027362752007 -0.00090894225286 -0.0054752156138
          -0.00097177841235 -0.0001844050712 -0.00071996694896 -6.4083906182e-005 -0.00262291939 -0.0010681247804
          -0.00044907690608 -0.0029373920988 -0.0027099840809 -0.00010004493379 -0.00081842381041 -0.00019749042985
          -0.00029571031337 -0.0012410156196 -0.0021200426854 -0.00012996609439 -0.00079684110824 -0.0009657398914
          0.00087456597248 -0.00020528053574 0 -0.0011782550719 -0.00048847630387 -9.5279006928e-005
          -0.0011553049553 -0.00015169833205 -0.0017333704745 -0.00013733332162 -0.0087503409013 -0.00031656015199
          -0.0037672871258 -0.0046795974486 -0.00016338691057 -0.0001651673374 -0.00018074671971 -0.004841668997
          -0.0012638026383 -0.00020994085935 -0.0012271840824 -0.00052604707889 -0.00086040556198 -0.00018921625451
          -0.0040138508193 -0.00034074494033 -0.0012410156196 -0.0011281272164 -0.00017256457068 -0.00044503578101
          0 -0.00018846493913 -0.0035900662187 -0.0033268150873 -0.00021626148373 8.8803797553e-005
          -0.0047904253006 7.4014737038e-005 -0.013916009106 -0.0082112811506 1.6166935893e-005 -0.00017885067791
          -0.001136558596 -0.00056918541668 -0.0023619518615 -0.00017944227147 -0.00090894225286 -5.1904775319e-005
          -0.00037877055001 -0.0086048394442 -0.0012271840824 -0.00023381930077 -0.0075928736478 -0.00011466474825
          -0.0016799086006 -0.00016502595099 -0.00019299032283 -0.0059983218089 -0.00016702686844 -0.0065784980543
          0 -0.0033703548834 -5.9311623772e-005 -0.0082388482988 -0.00064339884557 -0.022023273632
          -0.00013746017066 -0.00045398276416 -0.00028112274595 -0.0009657398914 -0.00015081521997 -0.00020001055964
          -0.014228596352 -0.0010908456752 -0.00021140706667 -0.004928373266 -0.001136558596 -0.00023224267352
          -0.00023042412067 -0.015209998004 -0.014258947223 -0.00023091533512 -0.0033310044091 -0.00025615468621
          -0.00014661299065 -0.0073464484885 -0.00061663321685 -0.00081842381041 -0.00039338922943 -0.013053769246
          -0.00019710580818 -0.0011281272164 -0.0091959815472 -0.00031755075906 0 0.0001753851684
          -0.016700046137 0.00016621955729 -0.034696247429 -0.00031548333936 -0.0015710870503 9.9113487522e-005
          -0.024428250268 -0.00013367738575 -0.0010908456752 -0.010618389584 -0.00016904654331 3.4852586396e-005
          -0.026744527742 -0.00097177841235 -0.0006369582261 -0.00041106241406 -0.0088279275224 -4.3530602852e-005
          -0.026498133317 -0.0076904776506 -0.00049954856513 -0.0012638026383 -4.1466223593e-006 -0.0016799086006
          -0.00024598871823 -8.2682472566e-006 -0.025624638423 -0.020062206313 -0.03152763471 7.0598551247e-005
          -0.0039547914639 -0.054415743798 -0.00057555775857 -0.0015710870503 -0.022618984804 2.5508907129e-005
          -0.0011358076008 -0.04161387682 -0.0017333704745 -0.00085390923778 -0.046728666872 -0.0023619518615
          -0.00042387557914 -0.010866265744 0.00020520077669 9.7712574643e-005 -0.018103592098 -0.048577774316
          -0.00085868383758 -0.0033310044091 -0.049317009747 -0.011565675959 0.00020826536638 -0.0021200426854
          -0.0015139521565 -0.0039547914639 0.00035377353197 -0.039340410382 -0.056606840342 -0.00077981495997
          -0.0033268150873 -0.08488073945 -0.046652082354 -0.004928373266 -0.070264160633 -0.0013367758365
          -0.080845937133 -0.015520097688 0.0003569725086 0.00050281733274 -0.040859110653 -0.0076904776506
          -0.08741594851 -0.0027099840809 -0.0014418067876 -0.0040138508193 -0.092266790569 -0.0065784980543
          -0.002127593616 -0.011565675959 0.0005426722928 -0.031271528453 -0.072019122541 0.00062492035795
          -0.010618389584 -0.097473628819 -0.13137222826 -0.091940373182 -0.11711689085 -0.028950823471
          0.00076080363942 -0.018103592098 -0.1375952512 -0.004841668997 -0.00262291939 -0.086185030639
          -0.0034131661523 -0.0075928736478 -0.15316447616 -0.013053769246 0.00066683103796 -0.031271528453
          -0.16598188877 -0.074744656682 0.00099861680064 -0.022618984804 -0.12489616871 -0.16135245562
          -0.17086394131 -0.0046795974486 -0.20090939105 -0.0086048394442 -0.0054752156138 -0.064173266292
          -0.19135893881 -0.040859110653 -0.014258947223 0.00052884372417 -0.22813916206 -0.16719737649
          -0.025624638423 0.0012264156248 -0.25831252337 -0.074744656682 -0.046652082354 -0.15672385693
          -0.28314599395 -0.0087503409013 -0.0082112811506 -0.015209998004 2.9343300412e-005 -0.29509994388
          -0.20626556873 0.0013818412554 -0.026498133317 -0.25660130382 -0.086185030639 -0.13997910917
          -0.30182635784 -0.30367535353 -0.049317009747 -0.29437345266 -0.36413937807 -0.013916009106
          -0.15672385693 -0.41363987327 -0.014228596352 -0.0011553049553 -0.091940373182 -0.026744527742
          0.0013419718016 -0.28755393624 -0.45133146644 -0.048577774316 -0.16719737649 -0.46767103672
          -0.32480189204 -0.27162286639 -0.39134576917 -0.092266790569 -0.44238814712 -0.46345698833
          -0.022023273632 -0.0035900662187 -0.46687215567 -0.024428250268 0.00087456597248 -0.55280846357
          -0.046728666872 -0.28755393624 -0.17086394131 -0.62095957994 -0.46359720826 -0.08741594851
          -0.6648991704 -0.29437345266 -0.0082388482988 -0.034696247429 -0.00044503578101 -0.67672812939
          -0.45788878202 -0.16598188877 -0.48767250776 -0.04161387682 -0.57150655985 -0.62851125002
          -0.67460852861 -0.66971117258 -0.080845937133 -0.79099059105 -0.29509994388 -0.46359720826
          -0.86754697561 -0.15316447616 -0.66706001759 -0.016700046137 -0.0033703548834 -0.054415743798
          -0.90384614468 -0.46687215567 -0.28314599395 -0.070264160633 -0.67833888531 -0.90123224258
          -0.69855540991 -0.79908680916 -0.1375952512 -0.86162704229 -0.88431882858 -0.93262058496
          -0.46767103672 -0.66706001759 -1.063916564 -0.0091959815472 -0.25831252337 -0.03152763471
          -0.08488073945 -1.1310626268 -0.87855291367 -0.11711689085 -0.66971117258 -1.1471134424
          -0.45133146644 -0.90374195576 -0.22813916206 -1.1281870604 -0.020062206313 -0.95674854517
          -1.0719190836 -0.67672812939 -1.1384762526 -0.056606840342 -1.1027692556 -0.41363987327
          -0.87855291367 -1.2267690897 -0.13137222826 -1.3541961908 -0.19135893881 -1.0875537395
          -1.3973263502 -0.6648991704 -0.88431882858 -1.3926534653 -0.36413937807 -1.1085072756
          -0.039340410382 -0.097473628819 -1.3651491404 -0.90123224258 -1.2581471205 -0.20090939105
          -0.62095957994 -1.3853331804 -1.4537699223 -1.0875537395 -1.3320627213 -1.5483372211
          -0.30367535353 -1.6578400135 -1.2970621586 -0.90384614468 -1.6776664257 -1.1027692556
          -0.072019122541 -0.55280846357 -1.6653828621 -0.16135245562 -1.2890580893 -1.6394066811
          -0.30182635784 -1.1281870604 -0.86754697561 -1.5973461866 -1.2970621586 -1.7344580889
          -1.5970554352 -1.8038756847 -0.46345698833 -1.8989483118 -0.12489616871 -1.9925377369
          -1.1471134424 -1.537394762 -0.79099059105 -1.3320627213 -2.0068442822 -0.25660130382
          -2.0054166317 -1.4900562763 -0.44238814712 -1.1310626268 -1.9900836945 -1.3651491404
          -0.67460852861 -1.537394762 -1.9686801434 -1.9410015345 -2.1146066189 -0.20626556873
          -2.1873016357 -2.28901577 -1.3926534653 -0.39134576917 -2.384509325 -1.063916564
          -1.8651838303 -1.5970554352 -2.4172565937 -0.62851125002 -2.4412074089 -1.790309906
          -1.3973263502 -1.6394066811 -2.4427173138 -0.93262058496 -0.32480189204 -1.8651838303
          -2.3902163506 -2.36439538 -0.57150655985 -2.5181953907 -2.5991616249 -1.6653828621
          -1.3541961908 -2.7224061489 -1.9410015345 -2.3085343838 -2.8387622833 -0.86162704229
          -2.9037392139 -2.2251925468 -1.6776664257 -2.9533905983 -0.48767250776 -1.9900836945
          -1.2267690897 -2.9643626213 -0.79908680916 -2.3085343838 -2.9005367756 -1.6578400135
          -2.770765543 -2.9299049377 -2.0054166317 -3.0224809647 -1.1384762526 -3.1775717735
          -2.3902163506 -2.8105123043 -3.3161280155 -3.4037706852 -0.69855540991 -2.0068442822
          -2.7312476635 -1.5483372211 -3.4576668739 -2.4427173138 -1.0719190836 -3.4543292522
          -2.8105123043 -1.9925377369 -2.4412074089 -3.3647429943 -1.4537699223 -3.1658229828
          -3.3247301579 -3.4244842529 -2.9005367756 -3.6034915447 -3.2572953701 -3.7400584221
          -0.95674854517 -2.4172565937 -1.8989483118 -3.8179783821 -3.1908462048 -2.9643626213
          -1.3853331804 -3.8435828686 -3.8061683178 -3.2572953701 -2.384509325 -1.8038756847
          -2.9533905983 -3.6912953854 -3.522588253 -3.6730215549 -3.7646508217 -1.2581471205
          -3.3647429943 -3.9395227432 -3.569742918 -4.035466671 -2.28901577 -2.9037392139
          -4.0677309036 -1.7344580889 -3.4543292522 -3.5286943913 -4.0476999283 -3.9837162495
          -2.8387622833 -3.569742918 -2.1873016357 -3.4576668739 -3.8696408272 -1.5973461866
          -3.8182399273 -3.6912953854 -3.952031374 -4.0128531456 -3.7575466633 -4.1488862038
          -2.7224061489 -3.4037706852 -4.1745996475 -2.1146066189 -4.1458024979 -3.8061683178
          -3.7533130646 -4.0937633514 -3.3161280155 -2.5991616249 -3.7575466633 -4.0355277061
          -3.8435828686 -1.9686801434 -3.9577710629 -3.8696408272 -4.0449962616 -3.1775717735
          -4.1581583023 -4.1674518585 -3.88346982 -3.8179783821 -2.5181953907 -4.24355793
          -4.1957950592 -3.9837162495 -3.9061236382 -4.1196537018 -4.0698809624 -3.0224809647
          -3.7400584221 -2.36439538 -3.88346982 -4.0476999283 -4.0457019806 -4.0204424858
          -3.9577710629 -3.6034915447 -2.9299049377 -4.0677309036 -4.2163524628 -4.312309742
          -3.9906301498 -4.2619695663 -4.2834510803 -4.1838974953 -4.0355277061 -4.0031723976
          -4.0929632187 -3.4244842529 -4.035466671 -2.770765543 -4.0719199181 -3.9906301498
          -4.0937633514 -4.0795254707 -4.0940861702 -3.9395227432 -3.3247301579 -4.0204424858
          -4.1458024979 -4.3641571999 -4.4537658691 -4.0930819511 -4.3550405502 -4.3504290581
          -4.0457019806 -4.2312035561 -3.7646508217 -4.0699896812 -3.1658229828 -4.1567087173
          -4.1745996475 -4.1570053101 -4.0698809624 -4.0930819511 -4.1694221497 -3.6730215549
          -4.1488862038 -4.2049612999 -4.0940861702 -4.1196537018 -4.2222733498 -4.5261092186
          -4.6235160828 -4.5065727234 -4.5133533478 -4.0795254707 -4.0128531456 -3.522588253
          -4.4028081894 -4.1957950592 -4.182902813 -4.3536214828 -4.3368506432 -4.0719199181
          -4.2222733498 -4.3281202316 -3.952031374 -4.24355793 -4.2049612999 -4.3715372086
          -4.0929632187 -4.4037079811 -4.7274165154 -4.8432526588 -4.1674518585 -4.7492313385
          -4.1694221497 -3.8182399273 -4.8012018204 -4.1838974953 -4.7183566093 -4.3861675262
          -4.6750292778 -4.1570053101 -4.6036906242 -4.4037079811 -4.1581583023 -4.2834510803
          -4.5516223907 -4.1567087173 -4.3715372086 -4.5728840828 -4.0449962616 -4.6109375954
          -4.2619695663 -4.9630064964 -4.3281202316 -5.0979890823 -5.0657176971 -4.2312035561
          -5.1867752075 -4.6378102303 -5.144162178 -5.0766310692 -4.3368506432 -4.312309742
          -4.9422597885 -4.6109375954 -4.3504290581 -4.8260660172 -4.3536214828 -4.5728840828
          -4.7764225006 -4.2163524628 -4.3550405502 -4.8069500923 -4.5516223907 -5.1874241829
          -4.4028081894 -5.327978611 -5.3761620522 -5.5697250366 -4.8793578148 -5.5696249008
          -4.6036906242 -5.4667768478 -4.4537658691 -4.8069500923 -4.5133533478 -5.3140435219
          -5.1481494904 -4.6750292778 -4.7764225006 -4.3641571999 -4.9919009209 -4.5065727234
          -4.9838542938 -4.8260660172 -4.7183566093 -5.3205957413 -5.4360442162 -5.5379471779
          -5.7563390732 -5.0968084335 -5.7687697411 -4.6235160828 -4.9422597885 -5.6644334793
          -4.8012018204 -4.9838542938 -5.5942263603 -5.0766310692 -5.4668292999 -4.9919009209
          -4.5261092186 -4.7492313385 -5.2328777313 -5.1481494904 -5.144162178 -5.1478662491
          -5.280620575 -5.3285036087 -5.3976693153 -5.2779664993 -5.5285143852 -4.8432526588
          -5.5084881783 -5.3140435219 -5.1867752075 -5.4698266983 -5.1478662491 -5.5778689384
          -5.4667768478 -4.7274165154 -5.677315712 -5.2328777313 -5.0657176971 -5.5235857964
          -5.5696249008 -5.4668292999 -5.3598093987 -5.046233654 -5.0073456764 -5.0979890823
          -4.9628348351 -5.3966584206 -4.9582772255 -5.5942263603 -4.9284496307 -5.5697250366
          -4.9104833603 -5.3598093987 -5.0991506577 -4.9630064964 -5.6644334793 -5.6001515388
          -5.3761620522 -5.5235857964 -5.799975872 -5.7687697411 -5.677315712 -5.7312750816
          -5.327978611 -4.7160968781 -4.631611824 -4.4898495674 -5.6310224533 -5.5778689384
          -4.3979611397 -5.7563390732 -4.3032460213 -4.1379523277 -5.7312750816 -5.1874241829
          -4.2645168304 -5.4698266983 -5.5379471779 -5.375272274 -5.799975872 -6.3377242088
          -5.5084881783 -5.6001515388 -6.3534946442 -5.4360442162 -4.523475647 -4.5409169197
          -5.599545002 -5.0991506577 -4.4767684937 -5.5285143852 -4.4494071007 -4.4598793983
          -6.3534946442 -5.3205957413 -4.158200264 -4.9104833603 -3.0034906864 -5.3976693153
          -6.3377242088 -3.5357151031 -7.0386924744 -4.9284496307 -5.375272274 -5.3285036087
          -8.5625286102 -4.9582772255 -4.6747927666 -4.2645168304 -4.6955418587 -7.1965742111
          -4.6417274475 -4.553445816 -4.1088905334 -5.280620575 -8.5625286102 -2.7811226845
          -4.1379523277 -4.9628348351 -2.0099759102 -7.0386924744 -3.9071266651 -4.3032460213
          -7.6499528885 -3.5357151031 -5.0073456764 -8.7064981461 -4.3979611397 -3.0034906864
          -8.7497062683 -5.046233654 -8.7064981461 -4.158200264 -4.4898495674 -7.6499528885
          -4.4598793983 -4.631611824 -3.9071266651 -4.4494071007 -2.0099759102 -4.7160968781
          -4.4767684937 -2.7811226845 -4.1088905334 -4.5409169197 -4.553445816 -4.523475647
          -4.6417274475 -4.6955418587 -4.6747927666
        </DataArray>
        <DataArray type="Float32" Name="VELOCITY" NumberOfComponents="3" ComponentName0="X-VELOCITY" ComponentName1="Y-VELOCITY" ComponentName2="Z-VELOCITY" format="ascii" RangeMin="0" RangeMax="9.8776416779">
          0 0 0 0 0 0
          5.2512860298 9.8508236988e-005 0 5.2510910034 0.00012254079047 0
          5.2490730286 0.00025953439763 0 0 0 0
          5.2508625984 0.00013370576198 0 5.2490997314 0.00022354091925 0
          5.2491564751 0.00021520264272 0 5.2501497269 0.00018483784515 0
          0 0 0 5.2506308556 0.0001292553352 0
          5.2501168251 0.00019800977316 0 5.2500314713 0.00022424529016 0
          5.2492051125 0.00021273408493 0 5.2497491837 0.00023733304988 0
          0 0 0 5.2504091263 0.00011845814879 0
          5.249730587 0.00026245962363 0 5.2499027252 0.00027053273516 0
          5.2492084503 0.00022112749866 0 5.2497053146 0.00031001234311 0
          5.2497291565 0.00034297278035 0 5.2499051094 0.00023307418451 0
          0 0 0 5.2496614456 0.00038420260535 0
          5.2499108315 0.00026512143086 0 5.2502012253 0.00010576359637 0
          5.2491393089 0.0002450045431 0 5.2499012947 0.00032861708314 0
          5.2495837212 0.00049977540039 0 5.2494969368 0.00045311337453 0
          5.2498755455 0.00042754714377 0 0 0 0
          5.2498984337 0.0002208204387 0 5.2499217987 0.00025874612038 0
          5.250002861 9.5213916211e-005 0 5.2499442101 0.00032836699393 0
          5.2489695549 0.00029181988793 0 5.2498297691 0.00057809555437 0
          5.2494530678 0.000675678486 0 5.2491793633 0.00061883218586 0
          5.2499680519 0.00043423773604 0 0 0 0
          5.2499399185 0.00018805795116 0 5.2497582436 0.00080298783723 0
          5.2498021126 8.9706503786e-005 0 5.2499847412 0.00022237963276 0
          5.2499933243 0.00059388385853 0 5.2492456436 0.00093956006458 0
          5.2486634254 0.00037193312892 0 5.2500367165 0.00028650611057 0
          5.2487339973 0.00086629053112 0 5.2501015663 0.00038390303962 0
          5.2500209808 0.00083151453873 0 5.2496504784 0.0011359180789 0
          5.2499670982 0.00013823676272 0 0 0 0
          5.2501859665 0.00053023605142 0 5.2495818138 9.1798596259e-005 0
          5.2500281334 0.00016464584041 0 5.2489285469 0.0013314464595 0
          5.2481708527 0.00050013250438 0 5.2501044273 0.00021401594859 0
          5.2500534058 0.0011825887486 0 5.2502040863 0.00028867874062 0
          5.2481002808 0.0012333682971 0 5.2494902611 0.0016260815319 0
          5.2503004074 0.00074738130206 0 5.2503399849 0.00040044615162 0
          5.2484550476 0.0019093740266 0 5.2499876022 7.4894938734e-005 0
          0 0 0 5.2493162155 0.00010434946307 0
          5.2500619888 8.84749752e-005 0 5.2504601479 0.0010674453806 0
          5.24741745 0.00069787917892 0 5.2500929832 0.0016987285344 0
          5.2501573563 0.00011506457668 0 5.2505288124 0.00056600075914 0
          5.2492547035 0.0023449775763 0 5.2471880913 0.0017748748651 0
          5.2502846718 0.00015555653954 0 5.2477564812 0.0027574277483 0
          5.2504591942 0.00021614502475 0 5.2506866455 0.0015373001806 0
          5.2499957085 6.8823258673e-016 0 5.2507967949 0.00080977939069 0
          0 0 0 5.2501444817 0.0024549928494 0
          5.2489690781 0.00013129964645 0 5.2500801086 2.7085782195e-015 0
          5.2462930679 0.00099660037085 0 5.2501888275 2.7401782659e-015 0
          5.2489085197 0.0033962281886 0 5.2507038116 0.00030579676968 0
          5.2458696365 0.0025701557752 0 5.250333786 2.909826895e-015 0
          5.2511806488 0.0011674622074 0 5.2510118484 0.0022252576891 0
          5.2505340576 2.3186533785e-015 0 5.246735096 0.0039971922524 0
          5.2502140999 0.0035603407305 0 5.2510519028 0.00043769270997 0
          0 0 0 5.2499876022 -7.4894938734e-005 0
          5.2484903336 0.00017860834487 0 5.2500619888 -8.84749752e-005 0
          5.2446370125 0.0014424489345 0 5.2484030724 0.0049296016805 0
          5.2501573563 -0.00011506457668 0 5.2508158684 6.9778780659e-016 0
          5.2517352104 0.0016911238199 0 5.2502846718 -0.00015555653954 0
          5.2514805794 0.0032307517249 0 5.2439603806 0.0037339660339 0
          5.2515530586 0.00063109811163 0 5.2512178421 -1.315642808e-015 0
          5.250310421 0.0051726168022 0 5.2504591942 -0.00021614502475 0
          5.2452468872 0.0058039012365 0 5.2499670982 -0.00013823676272 0
          0 0 0 5.2500281334 -0.00016464584041 0
          5.2525391579 0.002456773771 0 5.2478055954 0.0002555155661 0
          5.2522773743 0.00091416452779 0 5.2476649284 0.0071608140133 0
          5.2507038116 -0.00030579676968 0 5.2501044273 -0.00021401594859 0
          5.2422118187 0.0021031775977 0 5.2521586418 0.0046983491629 0
          5.2517957687 -2.1696842118e-015 0 5.2502040863 -0.00028867874062 0
          5.2411956787 0.005431804806 0 5.2504434586 0.0075198332779 0
          5.2510519028 -0.00043769270997 0 5.2503399849 -0.00040044615162 0
          5.2430868149 0.0084289154038 0 5.253329277 0.001328072045 0
          5.2537064552 0.0035754048731 0 5.2526321411 -5.9927178678e-016 0
          5.2499399185 -0.00018805795116 0 0 0 0
          5.2505288124 -0.00056600075914 0 5.2465896606 0.010399073362 0
          5.2531399727 0.0068379356526 0 5.2499847412 -0.00022237963276 0
          5.2468061447 0.00037637539208 0 5.2515530586 -0.00063109811163 0
          5.2386755943 0.0030780492816 0 5.2500367165 -0.00028650611057 0
          5.2501015663 -0.00038390303962 0 5.237197876 0.0079012364149 0
          5.2507967949 -0.00080977939069 0 5.2506275177 0.010930064134 0
          5.2538452148 1.6061039582e-015 0 5.2548589706 0.0019331878284 0
          5.2554030418 0.0052092075348 0 5.2399601936 0.012230437249 0
          5.2522773743 -0.00091416452779 0 5.2501859665 -0.00053023605142 0
          5.2545566559 0.0099535994232 0 5.2511806488 -0.0011674622074 0
          5.2450232506 0.015084674582 0 5.2503004074 -0.00074738130206 0
          5.2498984337 -0.0002208204387 0 0 0 0
          5.2453327179 0.00056343059987 0 5.2499217987 -0.00025874612038 0
          5.2556095123 3.3398331233e-015 0 5.2499442101 -0.00032836699393 0
          5.2335348129 0.0045120189898 0 5.253329277 -0.001328072045 0
          5.2570872307 0.0028183050454 0 5.2499680519 -0.00043423773604 0
          5.2504601479 -0.0010674453806 0 5.2314300537 0.011480920017 0
          5.2508764267 0.015872778371 0 5.2517352104 -0.0016911238199 0
          5.2578682899 0.0075953798369 0 5.2499933243 -0.00059388385853 0
          5.2354474068 0.017714360729 0 5.2565946579 0.014484593645 0
          5.2506866455 -0.0015373001806 0 5.2548589706 -0.0019331878284 0
          5.2427444458 0.021838931367 0 5.2500209808 -0.00083151453873 0
          5.2581796646 3.3902110431e-015 0 5.2525391579 -0.002456773771 0
          5.2499051094 -0.00023307418451 0 0 0 0
          5.2603359222 0.0041146520525 0 5.2431459427 0.00085106422193 0
          5.2499108315 -0.00026512143086 0 5.226082325 0.0066156876273 0
          5.2499012947 -0.00032861708314 0 5.2500534058 -0.0011825887486 0
          5.251200676 0.023014774546 0 5.2510118484 -0.0022252576891 0
          5.2614440918 0.011081084609 0 5.2498755455 -0.00042754714377 0
          5.223136425 0.016648866236 0 5.2498297691 -0.00057809555437 0
          5.2289600372 0.025586441159 0 5.2570872307 -0.0028183050454 0
          5.2537064552 -0.0035754048731 0 5.2619309425 2.191202872e-015 0
          5.2595086098 0.02106263116 0 5.2500929832 -0.0016987285344 0
          5.2514805794 -0.0032307517249 0 5.2394313812 0.031527943909 0
          5.2497582436 -0.00080298783723 0 5.2650747299 0.0060173729435 0
          5.2497491837 -0.00023733304988 0 0 0 0
          5.249730587 -0.00026245962363 0 5.2398910522 0.0012922509341 0
          5.2497053146 -0.00031001234311 0 5.2501444817 -0.0024549928494 0
          5.2666182518 0.016174528748 0 5.2153153419 0.0096925199032 0
          5.2515978813 0.033293496817 0 5.2496504784 -0.0011359180789 0
          5.2554030418 -0.0052092075348 0 5.2496614456 -0.00038420260535 0
          5.211265564 0.024070212618 0 5.2603359222 -0.0041146520525 0
          5.2521586418 -0.0046983491629 0 5.2674164772 2.3224020816e-016 0
          5.2196769714 0.036814656109 0 5.2495837212 -0.00049977540039 0
          5.2636404037 0.030590193346 0 5.2494902611 -0.0016260815319 0
          5.2502140999 -0.0035603407305 0 5.2719888687 0.0088186571375 0
          5.2346200943 0.045339100063 0 5.2494530678 -0.000675678486 0
          5.2578682899 -0.0075953798369 0 5.2740745544 0.023618375883 0
          0 0 0 5.2492547035 -0.0023449775763 0
          5.2501497269 -0.00018483784515 0 5.2650747299 -0.0060173729435 0
          5.2531399727 -0.0068379356526 0 5.2501168251 -0.00019800977316 0
          5.235039711 0.0019680541009 0 5.2492456436 -0.00093956006458 0
          5.25203228 0.048008233309 0 5.2500314713 -0.00022424529016 0
          5.1998252869 0.014173930511 0 5.250310421 -0.0051726168022 0
          5.2754626274 -3.6093505368e-015 0 5.194378376 0.034651469439 0
          5.2499027252 -0.00027053273516 0 5.2489285469 -0.0013314464595 0
          5.2497291565 -0.00034297278035 0 5.206474781 0.052695397288 0
          5.2694306374 0.044342648238 0 5.2489085197 -0.0033962281886 0
          5.2820763588 0.01295820158 0 5.2545566559 -0.0099535994232 0
          5.2614440918 -0.011081084609 0 5.2494969368 -0.00045311337453 0
          5.2276449203 0.064862914383 0 5.2504434586 -0.0075198332779 0
          5.2719888687 -0.0088186571375 0 5.2847595215 0.034490011632 0
          5.2484550476 -0.0019093740266 0 0 0 0
          5.2490730286 -0.00025953439763 0 5.2491793633 -0.00061883218586 0
          5.227807045 0.003000826342 0 5.2523956299 0.068922095001 0
          5.2484030724 -0.0049296016805 0 5.2490997314 -0.00022354091925 0
          5.2873086929 -4.320792991e-015 0 5.2491564751 -0.00021520264272 0
          5.1776676178 0.020660053939 0 5.1705479622 0.049590792507 0
          5.2492051125 -0.00021273408493 0 5.2477564812 -0.0027574277483 0
          5.2967863083 0.01909552142 0 5.2565946579 -0.014484593645 0
          5.2774252892 0.064086586237 0 5.2487339973 -0.00086629053112 0
          5.2666182518 -0.016174528748 0 5.2492084503 -0.00022112749866 0
          5.2506275177 -0.010930064134 0 5.1878414154 0.074906177819 0
          5.2820763588 -0.01295820158 0 5.2476649284 -0.0071608140133 0
          5.2175607681 0.092158064246 0 5.2491393089 -0.0002450045431 0
          5.2999615669 0.050319176167 0 5.2481002808 -0.0012333682971 0
          5.246735096 -0.0039971922524 0 5.3048329353 -4.9781185101e-015 0
          5.2489695549 -0.00029181988793 0 5.2524523735 0.098344840109 0
          5.2512860298 -9.8508236988e-005 0 0 0 0
          5.2510910034 -0.00012254079047 0 5.217042923 0.0045707449317 0
          5.2595086098 -0.02106263116 0 5.1462154388 0.029957318678 0
          5.2508625984 -0.00013370576198 0 5.2508764267 -0.015872778371 0
          5.2465896606 -0.010399073362 0 5.2740745544 -0.023618375883 0
          5.2471880913 -0.0017748748651 0 5.2506308556 -0.0001292553352 0
          5.1372656822 0.070399694145 0 5.3182086945 0.028195276856 0
          5.2486634254 -0.00037193312892 0 5.288274765 0.092169880867 0
          5.2967863083 -0.01909552142 0 5.2504091263 -0.00011845814879 0
          5.2452468872 -0.0058039012365 0 5.1617965698 0.10550653934 0