<?xml version="1.0"?>
<VTKFile type="PolyData" version="0.1" byte_order="LittleEndian" compressor="vtkZLibDataCompressor">
  <PolyData>
    <Piece NumberOfPoints="1071" NumberOfVerts="0" NumberOfLines="0" NumberOfStrips="0" NumberOfPolys="2000">
      <PointData>
        <DataArray type="Float32" Name="PRESSURE" format="ascii" RangeMin="-6.6031322479" RangeMax="3.719176054">
          0 -0.039433073252 0 -0.055464297533 0 -0.08652471751
          -0.10332474858 -0.060602001846 -0.11188300699 0 -0.11806639284 -0.12920251489
          -0.075930416584 -0.13299459219 -0.13967339694 0 -0.12850640714 -0.13350905478
          -0.076028205454 -0.16140493751 -0.14274515212 -0.13736048341 -0.16172643006 0
          -0.11940652877 -0.17032936215 -0.076867870986 -0.11882344633 -0.12408748269 -0.14144267142
          -0.17358413339 -0.13699626923 -0.17580230534 -0.095204979181 0 -0.078634746373
          -0.090552575886 -0.14410881698 -0.089771591127 -0.17729738355 -0.15005455911 -0.094215363264
          -0.17752371728 -0.063009798527 0 -0.14922434092 -0.056394290179 -0.08267121017
          -0.17631183565 -0.10698165745 -0.048653710634 -0.1455052942 -0.043648634106 -0.17446771264
          -0.14505189657 -0.09959539026 0 -0.031206382439 -0.169511199 -0.025044292212
          -0.076383203268 -0.054871439934 -0.010708022863 -0.13161835074 -0.093147590756 -0.15488654375
          0.0029789172113 -0.039795640856 -0.13687208295 -0.14762108028 -0.0059932265431 0
          -0.0080233542249 -0.0047399387695 -0.060653842986 -0.086785286665 0.014548941515 -0.033080350608
          -0.10726348311 -0.11703854799 0.016545915976 0.03418263793 -0.12724417448 0.027147877961
          -0.12096210569 -0.031549151987 0 -0.073392875493 -0.00012973690173 0.020719340071
          -0.0018444546731 -0.046731121838 0.019640920684 -0.090236119926 0.054887235165 -0.095539279282
          0.040620148182 -0.1134980619 -0.027527980506 0.015601667576 -0.11473128945 0.033859401941
          0.053351603448 -0.060554195195 -0.011381387711 0 -0.019593538716 -0.060653842986
          0.00066869222792 0.062240619212 -0.10726348311 -0.099041529 0.010164692067 -0.12724417448
          0.041562628001 0.017203414813 -0.024721238762 -0.073085911572 0.052212398499 -0.12096210569
          0.0079750148579 0 -0.041926685721 -0.076383203268 0.029389372095 -0.057231120765
          0.0047078533098 0.031017350033 -0.095539279282 -0.13161835074 -0.041511226445 0.035107165575
          -0.041666463017 -0.15488654375 -0.035069651902 0.011060506105 -0.060554195195 -0.14762108028
          -0.049463167787 0.019509231672 0.019817829132 -0.0092133255675 0 -0.087919957936
          -0.11703854799 -0.037052165717 -0.0096404226497 -0.08267121017 -0.1098254025 -0.024721238762
          -0.10094799846 -0.1455052942 -0.17446771264 -0.10845611244 -0.073392875493 -0.066005855799
          0.015088675544 0.0091095436364 -0.025136766955 -0.12904645503 0.0047078533098 -0.169511199
          -0.088182903826 -0.027527980506 -0.12942112982 -0.13687208295 0 -0.14204569161
          -0.16899006069 -0.078634746373 0.01607931219 -0.14410881698 -0.16749750078 0.019509231672
          -0.033937934786 -0.17752371728 -0.086785286665 -0.18973833323 -0.16326887906 0.010164692067
          -0.10076834261 -0.17631183565 -0.21465955675 -0.1829637289 -0.031549151987 0.0091095436364
          -0.22548466921 -0.14505189657 -0.018234040588 0.029389372095 0 -0.19486880302
          -0.10428967327 -0.22448514402 -0.076867870986 -0.22892692685 -0.14144267142 -0.093147590756
          -0.2570784688 0.015601667576 -0.18769727647 -0.17580230534 -0.26332759857 -0.17729738355
          -0.28777888417 -0.033937934786 0.019817829132 -0.084038704634 -0.26797905564 -0.033080350608
          0.041562628001 -0.30288633704 -0.14922434092 -0.18167231977 0 -0.23674845695
          -0.076028205454 -0.26634141803 -0.13736048341 0.020719340071 -0.25935471058 -0.27363359928
          -0.32380926609 -0.09959539026 -0.025136766955 -0.17032936215 -0.31509461999 -0.10428967327
          0.035107165575 -0.16035753489 -0.33258858323 -0.17358413339 -0.31950956583 -0.039795640856
          0.053351603448 -0.2412045747 -0.34430873394 -0.15005455911 -0.10076834261 -0.29517188668
          -0.25984370708 0.016545915976 0 -0.18167231977 -0.0096404226497 -0.075930416584
          -0.28694927692 -0.10698165745 -0.34783768654 -0.13299459219 -0.29312753677 0.052212398499
          -0.22161327302 -0.33550292253 -0.16140493751 -0.054871439934 -0.16172643006 -0.33975675702
          -0.32529634237 0.054887235165 -0.26665613055 -0.088182903826 -0.18769727647 -0.13699626923
          -0.34163466096 0.011060506105 -0.2412045747 -0.28848034143 -0.0059932265431 -0.25972494483
          0 -0.094215363264 -0.28260529041 -0.32520708442 0.062240619212 -0.060602001846
          -0.25157594681 -0.11188300699 -0.28364127874 -0.32121694088 -0.13967339694 0.027147877961
          -0.25564178824 -0.1829637289 -0.2864870429 -0.043648634106 -0.25935471058 -0.14274515212
          -0.066005855799 -0.30784466863 -0.26665613055 0.031017350033 -0.29648703337 -0.12408748269
          -0.24520917237 0.0029789172113 0.033859401941 -0.24788016081 -0.089771591127 -0.26233482361
          0 -0.23627065122 -0.055464297533 -0.25424563885 -0.26797905564 -0.24669572711
          -0.10332474858 -0.16326887906 -0.037052165717 -0.29517188668 0.03418263793 -0.12920251489
          -0.27525568008 -0.21599505842 -0.048653710634 -0.21374970675 -0.25564178824 -0.13350905478
          0.0079750148579 -0.24276863039 -0.21840216219 -0.11882344633 -0.17793087661 -0.010708022863
          0.040620148182 -0.21767118573 -0.2570784688 -0.31950956583 -0.12942112982 -0.1724819243
          -0.090552575886 -0.28848034143 -0.19374527037 -0.049463167787 0 -0.039433073252
          -0.2073353976 -0.08652471751 -0.18879425526 0.014548941515 -0.15930688381 -0.11806639284
          -0.20625729859 -0.056394290179 -0.21599505842 -0.12245495617 0.017203414813 -0.12850640714
          -0.15640315413 -0.32380926609 -0.22548466921 0.019640920684 -0.1706802398 -0.025044292212
          -0.12256102264 -0.10089039803 -0.12904645503 -0.32529634237 -0.11940652877 -0.24520917237
          -0.035069651902 -0.095204979181 -0.072920754552 -0.1401027441 -0.15099970996 -0.0047399387695
          -0.096533626318 -0.12045932561 0.00066869222792 -0.15930688381 -0.030148370191 -0.063009798527
          -0.30288633704 -0.12729953229 -0.34783768654 -0.21465955675 -0.065063029528 -0.2864870429
          -0.10845611244 -0.11461086571 -0.0018444546731 -0.031206382439 -0.028312338516 -0.028080321848
          -0.041511226445 -0.17793087661 0.016235494986 -0.03735280782 -0.0080233542249 -0.34430873394
          -0.28777888417 -0.096533626318 -0.019593538716 -0.085620991886 -0.096492089331 -0.18973833323
          -0.32520708442 -0.054660242051 0.043569408357 -0.21374970675 -0.054245434701 -0.10094799846
          0.012283016928 -0.055136036128 -0.00012973688717 -0.057231120765 0.024485087022 -0.10089039803
          0.043588854373 -0.33258858323 -0.26332759857 -0.34163466096 0.072699345648 -0.26233482361
          -0.16749750078 -0.03735280782 -0.011381387711 0.0069991284981 -0.041008219123 -0.1098254025
          -0.12245495617 -0.055108454078 -0.0045559522696 0.076866179705 -0.0032095741481 -0.0010194280185
          -0.041926685721 -0.028312338516 0.056892309338 -0.33975675702 -0.31509461999 0.03947262466
          -0.22892692685 -0.29648703337 0.071580186486 -0.1724819243 -0.16899006069 0.0069991284981
          0.074720486999 0.020068325102 -0.087919957936 -0.030148370191 -0.015218638815 -0.035784911364
          0.048869591206 -0.33550292253 0.019366173074 -0.30784466863 -0.27363359928 0.029255058616
          0.013096341863 0.024485087022 -0.21840216219 -0.22448514402 0.054825261235 -0.0015346582513
          -0.072920754552 -0.14204569161 0.041140422225 0.020068325102 0.043569408357 -0.017540434375
          0.0084275482222 -0.29312753677 -0.32121694088 -0.24276863039 -0.26634141803 -0.050379771739
          -0.013403322548 -0.19486880302 -0.12256102264 -0.042881503701 0.03947262466 0.0096540488303
          0.012184985913 -0.01049398724 0.016235494986 -0.1055502221 0.0024801138788 -0.28364127874
          -0.017540434375 -0.04868292436 -0.27525568008 -0.28694927692 0.076866179705 -0.15640315413
          -0.23674845695 -0.11391911656 -0.12089554965 -0.028080321848 -0.0015346582513 -0.20595675707
          -0.035616066307 -0.07453840971 -0.074907533824 0.072699345648 -0.023648438975 -0.068746767938
          -0.24669572711 -0.28260529041 -0.25304606557 -0.20625729859 -0.25984370708 -0.089439235628
          -0.065063029528 -0.11391911656 0.048869591206 -0.17896714807 -0.24808742106 0.043588854373
          -0.28134822845 -0.1055502221 -0.25424563885 -0.18879425526 -0.25972494483 -0.37322041392
          -0.2047008872 0.074720486999 -0.076910756528 -0.12729953229 -0.12493290007 -0.078795552254
          -0.14658014476 -0.39652478695 0.012283016928 -0.19676806033 -0.050379771739 -0.24808742106
          -0.31274440885 0.071580186486 -0.37223669887 -0.2073353976 -0.23627065122 -0.12045932561
          -0.42185917497 -0.25304606557 0.0084275482222 -0.054245434701 -0.33285191655 -0.49490198493
          -0.12913830578 -0.1829649657 0.056892309338 -0.14024291933 -0.48494070768 -0.22385713458
          -0.20595675707 -0.37223669887 -0.28916719556 -0.19374527037 0.041140422225 -0.15099970996
          -0.054660242051 -0.40813705325 -0.44227826595 -0.0032095741481 -0.39652478695 -0.4956754446
          -0.12089554965 -0.41568520665 0.054825261235 -0.53291893005 -0.1401027441 -0.18410882354
          -0.23975625634 -0.37322041392 -0.1963571012 -0.096492089331 -0.49699404836 -0.04868292436
          -0.44227826595 -0.28296247125 -0.0045559522696 -0.34195542336 0.013096341863 -0.44918867946
          -0.43760108948 -0.28134822845 -0.48494070768 -0.4850075841 0.0024801138788 -0.44405302405
          -0.085620991886 -0.055108454078 -0.48972895741 -0.49490198493 -0.23712478578 0.019366173074
          -0.17896714807 -0.29076835513 -0.24189268053 -0.44918867946 -0.45202788711 -0.31616419554
          -0.01049398724 -0.34750178456 -0.41899356246 -0.42185917497 -0.40196120739 -0.49699404836
          -0.041008219123 -0.089439235628 -0.40952411294 -0.035784911364 -0.43804511428 -0.40291512012
          0.012184985913 -0.53291893005 -0.31274440885 -0.28958770633 -0.41899356246 -0.33879479766
          -0.39024737477 -0.28101789951 -0.068746767938 -0.32991403341 -0.015218638815 -0.32073283195
          -0.4956754446 -0.3849978447 -0.19676806033 -0.45202788711 -0.33128190041 -0.042881503701
          -0.31553590298 -0.41941946745 -0.023648438975 -0.40813705325 -0.32173082232 -0.48972895741
          -0.14658014476 -0.3849978447 -0.34959250689 -0.34547156096 -0.39413377643 -0.013403322548
          -0.32715755701 -0.34444138408 -0.4850075841 -0.074907533824 -0.29565739632 -0.28916719556
          -0.3653306067 -0.39024737477 -0.27345788479 -0.078795552254 -0.25631281734 -0.39786788821
          -0.43760108948 -0.40291512012 -0.28661599755 -0.22385713458 -0.035616066307 -0.3653306067
          -0.33654505014 -0.43001824617 -0.12493290007 -0.4719658792 -0.39944961667 -0.40952411294
          -0.34195542336 -0.38837510347 -0.34547156096 -0.36782580614 -0.31381297112 -0.14024291933
          -0.2771923542 -0.38584575057 -0.40196120739 -0.27461925149 -0.076910756528 -0.32173082232
          -0.28296247125 -0.32218763232 -0.1829649657 -0.36782580614 -0.37649554014 -0.34750178456
          -0.54436576366 -0.58744043112 -0.31553590298 -0.51663976908 -0.1963571012 -0.48966309428
          -0.33654505014 -0.40603995323 -0.40965509415 -0.37624487281 -0.12913830578 -0.33128190041
          -0.41116553545 -0.31616419554 -0.39140641689 -0.28661599755 -0.23975625634 -0.43746429682
          -0.40603995323 -0.32073283195 -0.25631281734 -0.47633504868 -0.24189268053 -0.7012629509
          -0.74966353178 -0.69013172388 -0.37649554014 -0.66576814651 -0.49491727352 -0.59952908754
          -0.18410882354 -0.27345788479 -0.32991403341 -0.58005088568 -0.49528986216 -0.32218763232
          -0.29076835513 -0.60234409571 -0.62620031834 -0.49491727352 -0.29565739632 -0.28101789951
          -0.27461925149 -0.63563978672 -0.89893233776 -0.95601302385 -0.9180406332 -0.23712478578
          -0.47633504868 -0.91651642323 -0.63225531578 -0.87773668766 -0.34444138408 -0.2771923542
          -0.87355101109 -0.33879479766 -0.43746429682 -0.62573969364 -0.88391900063 -0.86957967281
          -0.31381297112 -0.63225531578 -0.32715755701 -0.39140641689 -0.83860820532 -0.28958770633
          -1.1208696365 -0.63563978672 -1.1878228188 -1.1808737516 -0.79907435179 -1.2200402021
          -0.38837510347 -0.37624487281 -1.21641469 -0.39413377643 -1.2212569714 -0.62620031834
          -0.76752328873 -1.2002090216 -0.40965509415 -0.39944961667 -0.79907435179 -1.1388216019
          -0.60234409571 -0.34959250689 -1.0601817369 -0.83860820532 -1.3338109255 -0.48966309428
          -1.4080793858 -1.4381262064 -0.97451615334 -0.58005088568 -0.4719658792 -1.5284563303
          -1.5609515905 -0.86957967281 -0.89690113068 -1.562568903 -1.4954788685 -0.51663976908
          -0.59952908754 -0.43001824617 -0.97451615334 -0.88391900063 -1.3871136904 -1.2641487122
          -1.0601817369 -0.66576814651 -0.58744043112 -0.87355101109 -1.4895057678 -1.5627185106
          -1.1369326115 -1.6270618439 -1.7632237673 -1.820512414 -1.1388216019 -1.0097490549
          -1.8002985716 -0.69013172388 -0.87773668766 -0.54436576366 -1.682125926 -1.1369326115
          -1.2002090216 -1.5406545401 -1.3945384026 -0.91651642323 -0.74966353178 -1.2641487122
          -1.2212569714 -1.532892704 -1.5895895958 -1.2473658323 -1.6710884571 -1.8230272532
          -1.3871136904 -1.8766349554 -0.9180406332 -1.0897606611 -0.7012629509 -1.8176157475
          -1.21641469 -1.6646270752 -1.4954788685 -1.2473658323 -1.522292614 -0.95601302385
          -1.2200402021 -1.3857353926 -1.3945384026 -1.562568903 -1.2435774803 -1.4188406467
          -1.4394483566 -1.5073518753 -1.623671174 -1.5406545401 -1.1808737516 -0.89893233776
          -1.6402080059 -1.5609515905 -1.08449471 -1.5516067743 -1.4113075733 -1.682125926
          -1.2435774803 -1.3083202839 -1.1878228188 -1.5284563303 -1.3857353926 -1.2053442001
          -1.8002985716 -1.0799976587 -1.1345152855 -1.1054434776 -1.4381262064 -1.1294045448
          -1.522292614 -1.1208696365 -1.1648910046 -1.820512414 -1.1387099028 -0.94610100985
          -1.0715184212 -1.6646270752 -1.0002795458 -1.0799976587 -1.4080793858 -1.7632237673
          -0.95937401056 -1.8176157475 -1.2053442001 -0.89681005478 -1.3338109255 -0.78403747082
          -1.6270618439 -0.71565622091 -1.3083202839 -0.64270496368 -0.6157079339 -1.8766349554
          -0.57218444347 -0.70205909014 -0.54885870218 -0.56268334389 -1.4113075733 -1.5627185106
          -0.57667052746 -0.78403747082 -1.8230272532 -0.59180140495 -1.5516067743 -0.89681005478
          -0.5670825243 -1.4895057678 -1.6710884571 -0.45979449153 -0.95937401056 -0.24099095166
          -1.6402080059 -0.15440364182 -0.10773929209 -0.05362361297 -0.46963354945 -0.11000966281
          -1.0002795458 -0.22007872164 -1.5895895958 -0.45979449153 -1.623671174 -0.27726134658
          -0.31764033437 -1.0715184212 -0.5670825243 -1.532892704 -0.32247498631 -1.5073518753
          -0.2320291549 -0.59180140495 -1.1387099028 0.2012360692 0.25845435262 0.2662768662
          0.22480389476 -0.33987027407 0.031517472118 -1.4394483566 -0.57667052746 -0.14521849155
          -1.1648910046 -0.2320291549 -0.16413599253 -0.56268334389 -0.16198265553 -0.32247498631
          -1.4188406467 -1.1294045448 -0.18071271479 -0.31764033437 -0.54885870218 -0.11069767177
          0.55941820145 0.55585289001 0.48013326526 -0.14667624235 0.27434256673 -1.1054434776
          -0.0693076998 -0.27726134658 -0.57218444347 -0.31122669578 -0.11069767177 -0.17681367695
          -0.22007872164 -1.1345152855 0.0051095974632 -0.18071271479 -0.6157079339 -0.0030563524924
          -0.11000966281 -0.16198265553 0.073051273823 0.84439468384 0.78896129131 -0.64270496368
          0.65742123127 0.34789741039 0.32962083817 -0.16413599253 -0.21877533197 -0.05362361297
          -0.67383319139 0.073051273823 -0.19800329208 -0.71565622091 -0.14521849155 0.3483633697
          -0.10773929209 -0.0030563524924 0.26647913456 0.031517472118 0.0051095974632 0.2092269361
          -0.15440364182 1.1044926643 1.062307477 1.0290811062 0.70809400082 -0.17681367695
          0.7737609148 0.22480389476 -0.27020978928 -1.4213888645 0.2092269361 -0.24099095166
          -0.49214085937 -0.31122669578 0.2662768662 0.67673665285 0.26647913456 0.42548018694
          -0.0693076998 0.3483633697 0.020977487788 0.25845435262 1.3485569954 1.4077692032
          0.30714222789 -0.19800329208 1.7046108246 0.27434256673 1.8608709574 -0.045391187072
          0.020977487788 0.2012360692 -2.9909346104 -0.67383319139 -2.0787472725 0.48013326526
          0.42548018694 0.67901915312 1.0491883755 -0.21877533197 0.67673665285 0.55585289001
          0.073573775589 0.32962083817 1.4916244745 -0.49214085937 1.6932846308 -0.21300293505
          2.8495180607 3.719176054 -1.6402494907 0.55941820145 0.073573775589 -6.6031322479
          -1.4213888645 0.65742123127 -3.2596433163 1.0491883755 1.9115229845 -0.27020978928
          1.7947089672 0.67901915312 0.78896129131 0.26683294773 0.7737609148 -2.0787472725
          -0.11600700766 0.84439468384 0.26683294773 -2.9909346104 1.0290811062 1.7947089672
          -0.045391187072 1.062307477 1.9115229845 1.8608709574 -3.2596433163 1.1044926643
          1.7046108246 -6.6031322479 -1.6402494907 1.4077692032 3.719176054 1.3485569954
          2.8495180607 1.6932846308 1.4916244745
        </DataArray>
        <DataArray type="Float32" Name="VELOCITY" NumberOfComponents="3" ComponentName0="X-VELOCITY" ComponentName1="Y-VELOCITY" ComponentName2="Z-VELOCITY" format="ascii" RangeMin="0" RangeMax="8.1050405502">
          0 0 0 0 0 0
          2.519048214 0.014528684318 0 2.4883880615 0.014860684052 0
          2.0176646709 0.044793952256 0 0 0 0
          2.464042902 0.0094841551036 0 2.0126802921 0.033161383122 0
          2.0065720081 0.021689925343 0 3.9334614277 0.045442350209 0
          0 0 0 2.4487988949 0.0043461932801 0
          3.9233849049 0.040019694716 0 3.9144301414 0.025051599368 0
          2.0059585571 0.0084248911589 0 4.8191976547 0.056716166437 0
          0 0 0 2.4431333542 1.4690061107e-005 0
          4.8001532555 0.054581157863 0 3.9069855213 0.0092917541042 0
          2.0097198486 -0.0027641190682 0 4.7793049812 0.039654884487 0
          3.9019613266 -0.0050900578499 0 5.5158572197 0.079122371972 0
          0 0 0 4.7604584694 0.02202918753 0
          5.4905834198 0.078843072057 0 2.4451739788 -0.0030489065684 0
          2.0176877975 -0.011317614466 0 5.4701371193 0.060138635337 0
          4.7452216148 0.0047363070771 0 3.8996942043 -0.016487712041 0
          5.4594511986 0.035942077637 0 0 0 0
          6.088906765 0.10391701013 0 6.078605175 0.094734176993 0
          2.4525296688 -0.0045435130596 0 6.0818619728 0.063119113445 0
          2.0286095142 -0.015822358429 0 5.4604415894 0.01085741166 0
          4.7340402603 -0.0095800543204 0 3.8998816013 -0.022826042026 0
          6.1017718315 0.024146737531 0 0 0 0
          6.64376688 0.10932762921 0 5.4731402397 -0.011056455784 0
          2.461974144 -0.0042923628353 0 6.6595544815 0.085794135928 0
          6.1373581886 -0.015191438608 0 4.7264647484 -0.01825645566 0
          2.0405147076 -0.015564239584 0 6.6866335869 0.038871705532 0
          3.90178895 -0.023029569536 0 6.723886013 -0.013838530518 0
          6.1855096817 -0.04923671484 0 5.4964318275 -0.026429057121 0
          7.1354732513 0.087285287678 0 0 0 0
          6.7671327591 -0.062940821052 0 2.4700272083 -0.002381950384 0
          7.1735019684 0.055262692273 0 4.7216439247 -0.019885789603 0
          2.0511548519 -0.010575002991 0 7.2068400383 0.0050214147195 0
          6.2414398193 -0.073142781854 0 7.2309327126 -0.046709541231 0
          3.9043889046 -0.016996059567 0 5.528093338 -0.033140834421 0
          6.8106122017 -0.10121420026 0 7.2422475815 -0.090082496405 0
          4.7183952332 -0.014119273052 0 7.4304852486 0.043739072978 0
          0 0 0 2.4734313488 0.00088719272753 0
          7.4727320671 0.019997825846 0 6.8472075462 -0.12186577916 0
          2.0584056377 -0.0015688091516 0 6.2980084419 -0.082622416317 0
          7.4909129143 -0.012914652005 0 7.2382349968 -0.11765056849 0
          5.5642700195 -0.029825689271 0 3.9064910412 -0.0055820443667 0
          7.4804449081 -0.044127654284 0 4.7151589394 -0.0016725733876 0
          7.4433269501 -0.067303687334 0 6.8683404922 -0.11836440861 0
          7.5385036469 -1.4808151856e-014 0 7.2172994614 -0.12234637141 0
          0 0 0 6.3453469276 -0.07383146137 0
          2.469588995 0.005033750087 0 7.5632638931 -1.3166011623e-014 0
          2.0606789589 0.010107493959 0 7.5528445244 -9.7882280352e-015 0
          5.5991744995 -0.016085548326 0 7.3859872818 -0.077551789582 0
          3.9069523811 0.0094194607809 0 7.5079956055 -5.124475639e-015 0
          7.1797351837 -0.098547764122 0 6.8655452728 -0.086308442056 0
          7.4367489815 1.069151244e-015 0 4.7100934982 0.015555820428 0
          6.372420311 -0.04524159804 0 7.3187379837 -0.070570029318 0
          0 0 0 7.4304852486 -0.043739072978 0
          2.456949234 0.0094399098307 0 7.4727320671 -0.019997825846 0
          2.0572872162 0.0226250384 0 5.6259784698 0.0065394416451 0
          7.4909129143 0.012914652005 0 7.3528037071 4.6694402224e-015 0
          7.1298108101 -0.045824725181 0 7.4804449081 0.044127654284 0
          6.8344464302 -0.027886178344 0 3.9049816132 0.025440782309 0
          7.2556910515 -0.04427164048 0 7.2748169899 8.7095679993e-015 0
          6.3711585999 -0.00078084832057 0 7.4433269501 0.067303687334 0
          4.7016329765 0.03440528363 0 7.1354732513 -0.087285287678 0
          0 0 0 7.1735019684 -0.055262692273 0
          7.077580452 0.026333022863 0 2.4352650642 0.013437139802 0
          7.2133660316 -0.0018029385246 0 5.6393237114 0.033474527299 0
          7.3859872818 0.077551789582 0 7.2068400383 -0.0050214147195 0
          2.0486836433 0.0339426063 0 6.7793745995 0.044193699956 0
          7.2240867615 1.0494894918e-014 0 7.2309327126 0.046709541231 0
          3.900513649 0.03949432075 0 6.3415255547 0.048350121826 0
          7.3187379837 0.070570029318 0 7.2422475815 0.090082496405 0
          4.6894874573 0.050691463053 0 7.2064843178 0.046359386295 0
          7.0377616882 0.097621336579 0 7.2190241814 7.4951887212e-015 0
          6.64376688 -0.10932762921 0 0 0 0
          7.2382349968 0.11765056849 0 5.6384472847 0.057136502117 0
          6.7147431374 0.10806851834 0 6.6595544815 -0.085794135928 0
          2.4056484699 0.016423981637 0 7.2556910515 0.04427164048 0
          2.0365021229 0.042172580957 0 6.6866335869 -0.038871705532 0
          6.723886013 0.013838530518 0 3.8945047855 0.048730067909 0
          7.2172994614 0.12234637141 0 6.2938084602 0.086094044149 0
          7.2670679092 1.9366203435e-015 0 7.2414574623 0.084528192878 0
          7.0242543221 0.14362068474 0 4.6755833626 0.059996586293 0
          7.2133660316 0.0018029385246 0 6.7671327591 0.062940821052 0
          6.6603116989 0.14126887918 0 7.1797351837 0.098547764122 0
          5.6286892891 0.069002360106 0 6.8106122017 0.10121420026 0
          6.088906765 -0.10391701013 0 0 0 0
          2.3703832626 0.017990743741 0 6.078605175 -0.094734176993 0
          7.3584508896 1.7872727647e-015 0 6.0818619728 -0.063119113445 0
          2.0233454704 0.045959334821 0 7.2064843178 -0.046359386295 0
          7.311196804 0.098715230823 0 6.1017718315 -0.024146737531 0
          6.8472075462 0.12186577916 0 3.8889493942 0.051068197936 0
          6.2452940941 0.098213382065 0 7.1298108101 0.045824725181 0
          7.0427575111 0.14761638641 0 6.1373581886 0.015191438608 0
          4.6641640663 0.05891212821 0 6.6321983337 0.13176771998 0
          6.8683404922 0.11836440861 0 7.2414574623 -0.084528192878 0
          5.6197223663 0.063068822026 0 6.1855096817 0.04923671484 0
          7.4673790932 1.1459515096e-015 0 7.077580452 -0.026333022863 0
          5.5158572197 -0.079122371972 0 0 0 0
          7.3958268166 0.084027379751 0 2.3325097561 0.018008131534 0
          5.4905834198 -0.078843072057 0 2.0123524666 0.044745419174 0
          5.4701371193 -0.060138635337 0 6.2414398193 0.073142781854 0
          6.2126846313 0.079109951854 0 6.8655452728 0.086308442056 0
          7.0868639946 0.10913825035 0 5.4594511986 -0.035942077637 0
          3.8865077496 0.045684024692 0 5.4604415894 -0.01085741166 0
          4.6606559753 0.046210028231 0 7.311196804 -0.098715230823 0
          7.0377616882 -0.097621336579 0 7.5617957115 -3.8937186084e-016 0
          6.6356296539 0.083490893245 0 6.2980084419 0.082622416317 0
          6.8344464302 0.027886178344 0 5.6212697029 0.038560144603 0
          5.4731402397 0.011056455784 0 7.4702363014 0.046779524535 0
          4.8191976547 -0.056716166437 0 0 0 0
          4.8001532555 -0.054581157863 0 2.2952785492 0.016645906493 0
          4.7793049812 -0.039654884487 0 6.3453469276 0.07383146137 0
          7.1408820152 0.042843751609 0 2.0066673756 0.038837179542 0
          6.2051301003 0.033985193819 0 5.4964318275 0.026429057121 0
          7.0242543221 -0.14362068474 0 4.7604584694 -0.02202918753 0
          3.8898253441 0.033161070198 0 7.3958268166 -0.084027379751 0
          6.7793745995 -0.044193699956 0 7.6160845757 -2.3057564548e-015 0
          4.6697583199 0.023306332529 0 4.7452216148 -0.0047363070771 0
          6.6640257835 0.012815886177 0 5.528093338 0.033140834421 0
          6.372420311 0.04524159804 0 7.5139899254 9.1633432021e-005 0
          5.6389775276 0.0001377283188 0 4.7340402603 0.0095800543204 0
          7.0427575111 -0.14761638641 0 7.1871447563 -0.030201768503 0
          0 0 0 5.5642700195 0.029825689271 0
          3.9334614277 -0.045442350209 0 7.4702363014 -0.046779524535 0
          6.7147431374 -0.10806851834 0 3.9233849049 -0.040019694716 0
          2.2615926266 0.014319215901 0 4.7264647484 0.01825645566 0
          6.2218050957 -0.024476325139 0 3.9144301414 -0.025051599368 0
          2.0089526176 0.029275208712 0 6.3711585999 0.00078084832057 0
          7.6190981865 -2.5579105399e-015 0 3.9008090496 0.015285080299 0
          3.9069855213 -0.0092917541042 0 4.7216439247 0.019885789603 0
          3.9019613266 0.0050900578499 0 4.6937561035 -0.0061970166862 0
          6.7037034035 -0.059918127954 0 5.5991744995 0.016085548326 0
          7.5177121162 -0.042828347534 0 6.6603116989 -0.14126887918 0
          7.0868639946 -0.10913825035 0 3.8996942043 0.016487712041 0
          5.6725764275 -0.044118903577 0 6.3415255547 -0.048350121826 0
          7.5139899254 -9.1633432021e-005 0 7.2127161026 -0.09148760885 0
          4.7183952332 0.014119273052 0 0 0 0
          2.0176646709 -0.044793952256 0 3.8998816013 0.022826042026 0
          2.2335484028 0.011591701768 0 6.2539987564 -0.081547349691 0
          5.6259784698 -0.0065394416451 0 2.0126802921 -0.033161383122 0
          7.574508667 -2.2670830481e-015 0 2.0065720081 -0.021689925343 0
          2.0210461617 0.017595289275 0 3.9201264381 -0.0053807580844 0
          2.0059585571 -0.0084248911589 0 4.7151589394 0.0016725733876 0
          7.4836425781 -0.072947882116 0 6.6321983337 -0.13176771998 0
          6.7399845123 -0.11743122339 0 3.90178895 0.023029569536 0
          7.1408820152 -0.042843751609 0 2.0097198486 0.0027641190682 0
          6.2938084602 -0.086094044149 0 4.7317285538 -0.037502363324 0
          7.5177121162 0.042828347534 0 5.6393237114 -0.033474527299 0
          5.7164154053 -0.085223443806 0 2.0176877975 0.011317614466 0
          7.2122797966 -0.12912711501 0 3.9043889046 0.016996059567 0
          4.7100934982 -0.015555820428 0 7.496119976 9.0850593988e-016 0
          2.0286095142 0.015822358429 0 6.2890048027 -0.12432931364 0
          2.519048214 -0.014528684318 0 0 0 0
          2.4883880615 -0.014860684052 0 2.2121303082 0.0090727331117 0
          6.6356296539 -0.083490893245 0 2.0437805653 0.0055758934468 0
          2.464042902 -0.0094841551036 0 6.2452940941 -0.098213382065 0
          5.6384472847 -0.057136502117 0 7.1871447563 0.030201768503 0
          3.9064910412 0.0055820443667 0 2.4487988949 -0.0043461932801 0
          3.9470267296 -0.025939079002 0 7.4223132133 -0.085854411125 0
          2.0405147076 0.015564239584 0 6.7612977028 -0.14799718559 0
          7.4836425781 0.072947882116 0 2.4431333542 -1.4690061107e-005 0
          4.7016329765 -0.03440528363 0 4.7796187401 -0.065529704094 0
          5.7610578537 -0.11485599726 0 2.4451739788 0.0030489065684 0
          7.1874899864 -0.13716565073 0 2.0511548519 0.010575002991 0
          3.9069523811 -0.0094194607809 0 7.40254879 8.29722929e-016 0
          6.2126846313 -0.079109951854 0 6.6640257835 -0.012815886177 0
          5.6286892891 -0.069002360106 0 6.3133845329 -0.14295209944 0
          2.4525296688 0.0045435130596 0 7.2127161026 0.09148760885 0
          0 0 0 4.6894874573 -0.050691463053 0
          0 0 0 0 0 0
          2.1970648766 0.0073299440555 0 0 0 0
          2.0769264698 -0.0049835718237 0 2.0584056377 0.0015688091516 0
          7.3485760689 -0.080019250512 0 0 0 0
          3.9793844223 -0.043499398977 0 2.461974144 0.0042923628353 0
          7.4223132133 0.085854411125 0 6.760612011 -0.14467437565 0
          3.9049816132 -0.025440782309 0 0 0 0
          4.8306798935 -0.08543754369 0 6.2051301003 -0.033985193819 0
          5.6197223663 -0.063068822026 0 2.0606789589 -0.010107493959 0