<?xml version="1.0"?>
<VTKFile type="PolyData" version="0.1" byte_order="LittleEndian" compressor="vtkZLibDataCompressor">
  <PolyData>
    <Piece NumberOfPoints="1071" NumberOfVerts="0" NumberOfLines="0" NumberOfStrips="0" NumberOfPolys="2000">
      <PointData>
        <DataArray type="Float32" Name="PRESSURE" format="ascii" RangeMin="-9.3889331818" RangeMax="0">
          0 -0.027939444408 0 -0.058962192386 0 -0.10651583225
          -0.14502614737 -0.07076676935 -0.16547743976 0 -0.20548444986 -0.2507840395
          -0.059702623636 -0.16021597385 -0.27839425206 0 -0.32691061497 -0.37876677513
          -0.076820284128 -0.2824075222 -0.41055551171 -0.1893299669 -0.42390519381 0
          -0.46915382147 -0.32188794017 -0.091858662665 -0.52674722672 -0.56112092733 -0.21189844608
          -0.47170048952 -0.58298110962 -0.34856390953 -0.6285468936 0 -0.10079836845
          -0.6907736063 -0.2223829776 -0.72700154781 -0.50069648027 -0.63739955425 -0.7566292882
          -0.35860988498 -0.80056393147 0 -0.6690737009 -0.86604875326 -0.10171870887
          -0.51076203585 -0.8172057271 -0.90359216928 -0.21972760558 -0.94006353617 -0.35259181261
          -0.68175119162 -0.85348796844 0 -0.97987103462 -0.50339698792 -1.0470445156
          -0.096503645182 -1.0065050125 -1.0850032568 -0.20891733468 -0.87157607079 -0.33765494823
          -1.1261769533 -1.0481332541 -0.67617303133 -0.48665750027 -1.1962199211 0
          -1.1609654427 -1.2282135487 -0.090547166765 -0.86988008022 -1.2649573088 -1.0713839531
          -0.19927673042 -0.66023164988 -1.2399382591 -1.3065860271 -0.3248398602 -1.3748058081
          -0.47233179212 -1.0717699528 0 -0.85536164045 -1.339281559 -1.2631095648
          -1.4052766562 -0.09181830287 -1.438595295 -0.19820125401 -1.4132111073 -0.64685040712
          -1.4747415781 -0.31661519408 -1.0556225777 -1.2597750425 -0.45506569743 -1.53386271
          -1.4280669689 -0.84348928928 -1.5125313997 0 -1.5766403675 -0.090547166765
          -1.604470253 -1.5587222576 -0.19927673042 -0.62427866459 -1.2382797003 -0.3248398602
          -1.4159181118 -1.629488945 -1.0429879427 -0.82280534506 -1.5592728853 -0.47233179212
          -1.6736978292 0 -1.681550622 -0.096503645182 -1.3905732632 -1.7440843582
          -1.2236185074 -1.6805720329 -0.64685040712 -0.20891733468 -1.7654672861 -1.5389937162
          -1.0309917927 -0.33765494823 -1.7765616179 -1.6670531034 -0.84348928928 -0.48665750027
          -1.8046902418 -1.3771352768 -1.5171234608 -1.2247843742 0 -1.849996686
          -0.66023164988 -1.7955456972 -1.6445645094 -0.10171870887 -1.9121061563 -1.0429879427
          -1.9278328419 -0.21972760558 -0.35259181261 -1.9266691208 -0.85536164045 -1.7739377022
          -1.3918596506 -1.5095562935 -1.6326816082 -1.9432321787 -1.2236185074 -0.50339698792
          -1.755492568 -1.0556225777 -1.9255774021 -0.67617303133 0 -2.0228106976
          -2.0860254765 -0.10079836845 -1.5318399668 -0.2223829776 -2.0985639095 -1.3771352768
          -1.6309765577 -0.35860988498 -0.86988008022 -2.0909473896 -1.9042731524 -1.2382797003
          -1.7535440922 -0.51076203585 -2.1044938564 -1.8934113979 -1.0717699528 -1.5095562935
          -2.0881707668 -0.68175119162 -1.6496297121 -1.3905732632 0 -2.2040247917
          -1.7524704933 -2.2696275711 -0.091858662665 -2.2823078632 -0.21189844608 -0.87157607079
          -2.075054884 -1.2597750425 -1.8963416815 -0.34856390953 -2.2760336399 -0.50069648027
          -2.2958021164 -1.6309765577 -1.5171234608 -1.7576538324 -2.0733494759 -1.0713839531
          -1.4159181118 -2.2894136906 -0.6690737009 -1.8906234503 0 -2.3948495388
          -0.076820284128 -2.4633572102 -0.1893299669 -1.2631095648 -2.0760877132 -2.4791710377
          -2.2900192738 -0.85348796844 -1.6326816082 -0.32188794017 -2.4811413288 -1.7524704933
          -1.5389937162 -1.8799133301 -2.513723135 -0.47170048952 -2.2977921963 -1.0481332541
          -1.4280669689 -2.0637459755 -2.5219609737 -0.63739955425 -1.7535440922 -2.2968530655
          -2.5928299427 -1.2399382591 0 -1.8906234503 -1.6445645094 -0.059702623636
          -2.6637790203 -0.8172057271 -2.5377295017 -0.16021597385 -2.6843459606 -1.5592728853
          -2.0413599014 -2.6983542442 -0.2824075222 -1.0065050125 -0.42390519381 -2.7457787991
          -2.5526945591 -1.4132111073 -2.2775683403 -1.755492568 -1.8963416815 -0.58298110962
          -2.768188715 -1.6670531034 -2.0637459755 -2.5447471142 -1.1962199211 -2.7923250198
          0 -0.7566292882 -2.8644001484 -2.795384407 -1.5587222576 -0.07076676935
          -2.2489414215 -0.16547743976 -2.8895359039 -2.9155623913 -0.27839425206 -1.3748058081
          -2.5176756382 -1.8934113979 -2.8119072914 -0.94006353617 -2.0760877132 -0.41055551171
          -1.7739377022 -2.9752137661 -2.2775683403 -1.6805720329 -3.0065555573 -0.56112092733
          -2.793431282 -1.1261769533 -1.53386271 -2.4860575199 -0.72700154781 -3.037227869
          0 -2.9859778881 -0.058962192386 -3.0573666096 -2.0733494759 -3.085313797
          -0.14502614737 -1.9042731524 -1.7955456972 -2.2968530655 -1.3065860271 -0.2507840395
          -3.1201972961 -2.7574927807 -0.90359216928 -3.0479979515 -2.5176756382 -0.37876677513
          -1.6736978292 -3.1859445572 -3.2177553177 -0.52674722672 -3.0164625645 -1.0850032568
          -1.4747415781 -2.7245566845 -2.075054884 -2.2977921963 -1.9255774021 -3.2422986031
          -0.6907736063 -2.5447471142 -3.1665179729 -1.8046902418 0 -0.027939444408
          -3.2353096008 -0.10651583225 -3.2633602619 -1.2649573088 -2.9715979099 -0.20548444986
          -3.3020737171 -0.86604875326 -2.7574927807 -3.2406961918 -1.629488945 -0.32691061497
          -3.3656880856 -2.2900192738 -2.0881707668 -1.438595295 -2.9395287037 -1.0470445156
          -3.3882181644 -3.1956028938 -1.9432321787 -2.5526945591 -0.46915382147 -2.793431282
          -1.7765616179 -0.6285468936 -3.3978536129 -3.3282926083 -3.3927938938 -1.2282135487
          -3.1437621117 -3.4179701805 -1.604470253 -2.9715979099 -3.3795332909 -0.80056393147
          -2.2894136906 -3.4548342228 -2.5377295017 -2.1044938564 -3.5072190762 -2.8119072914
          -1.9266691208 -3.1165647507 -1.4052766562 -0.97987103462 -3.3233077526 -3.5112218857
          -1.7654672861 -3.0164625645 -3.499853611 -3.2693531513 -1.1609654427 -2.5219609737
          -2.2958021164 -3.1437621117 -1.5766403675 -3.4682133198 -3.5271544456 -2.0909473896
          -2.795384407 -3.5467908382 -3.4640450478 -3.0479979515 -3.5764663219 -1.9278328419
          -3.6088330746 -3.2525596619 -1.339281559 -1.7440843582 -3.4029376507 -3.1956028938
          -3.5873599052 -2.513723135 -2.2760336399 -2.768188715 -3.5531995296 -3.037227869
          -2.0985639095 -3.2693531513 -1.5125313997 -3.3545532227 -3.5860376358 -1.9121061563
          -3.2406961918 -3.6387088299 -3.6509723663 -3.5037369728 -3.6694338322 -3.3529610634
          -1.681550622 -3.3233077526 -3.6747891903 -2.7457787991 -2.4811413288 -3.4470484257
          -2.2823078632 -3.0065555573 -3.6251130104 -3.2422986031 -2.0860254765 -3.3545532227
          -3.5716021061 -3.4118947983 -1.849996686 -3.3795332909 -3.6840040684 -3.730360508
          -3.5160710812 -2.6983542442 -3.7347710133 -2.9752137661 -2.4791710377 -3.4257149696
          -3.7404437065 -3.4029376507 -3.2177553177 -2.2696275711 -3.7154929638 -3.47224617
          -3.3978536129 -2.0228106976 -3.6405889988 -3.4118947983 -3.4640450478 -3.4529948235
          -3.5754210949 -2.6843459606 -2.9155623913 -3.1859445572 -2.4633572102 -3.5217788219
          -3.76583004 -2.2040247917 -3.3882181644 -3.8065400124 -3.4470484257 -3.4747900963
          -3.8044323921 -3.7993748188 -3.499853611 -3.4935348034 -3.7464292049 -2.8895359039
          -3.4529948235 -3.6551177502 -3.1201972961 -2.6637790203 -3.5037369728 -3.3656880856
          -2.3948495388 -3.4851193428 -3.5875566006 -3.5112218857 -3.47224617 -3.5409395695
          -3.8351128101 -3.5012309551 -3.8714644909 -3.5531995296 -3.8661422729 -3.8567547798
          -3.085313797 -2.8644001484 -3.5242371559 -3.3020737171 -2.5928299427 -3.7847042084
          -3.5072190762 -3.4851193428 -3.5160710812 -3.6902012825 -3.5170819759 -3.5873599052
          -3.6289465427 -3.4935348034 -3.0573666096 -3.2633602619 -2.7923250198 -3.591966629
          -3.5147233009 -3.5716021061 -3.8933568001 -3.4548342228 -3.9269163609 -3.9230940342
          -3.9195404053 -3.5799884796 -3.6088330746 -3.8427371979 -3.5217788219 -3.5170819759
          -3.7600820065 -3.6251130104 -3.5665323734 -3.2353096008 -2.9859778881 -3.4179701805
          -3.7129025459 -3.5242371559 -3.5754210949 -3.5764663219 -3.5418016911 -3.6876337528
          -3.9381625652 -3.9701731205 -3.6747891903 -3.9724123478 -3.6744120121 -3.986096859
          -3.5409395695 -3.5665323734 -3.9205646515 -3.1665179729 -3.6405889988 -3.3927938938
          -3.5467908382 -3.8630745411 -3.6515886784 -3.6694338322 -3.5799884796 -3.8357098103
          -3.5875566006 -3.6107594967 -3.7154929638 -3.8221032619 -3.3282926083 -3.962467432
          -3.9931867123 -3.591966629 -4.0035572052 -3.5271544456 -3.8015053272 -3.6551177502
          -3.6515886784 -4.0430011749 -3.6509723663 -4.0008664131 -3.7404437065 -3.76730299
          -3.9755885601 -3.6289465427 -3.6744120121 -3.9678997993 -3.7464292049 -3.7202525139
          -3.4682133198 -3.6387088299 -3.9596784115 -3.6876337528 -3.9557461739 -3.7347710133
          -3.6902012825 -3.9841599464 -4.0001654625 -3.76730299 -3.9243910313 -4.0670552254
          -3.7993748188 -4.0517692566 -3.8760974407 -3.7129025459 -4.0560212135 -3.8015053272
          -3.5860376358 -3.7847042084 -4.0597057343 -3.730360508 -3.8299047947 -4.0459356308
          -3.8044323921 -3.8221032619 -3.7600820065 -3.907481432 -3.8760974407 -3.9317936897
          -3.9930205345 -3.9459600449 -3.8567547798 -4.0336685181 -3.6840040684 -4.0389761925
          -3.8357098103 -3.9321074486 -3.8427371979 -3.9243910313 -4.0618286133 -3.8065400124
          -4.0651898384 -3.8903474808 -3.8661422729 -3.8630745411 -4.0397701263 -3.9596784115
          -3.9195404053 -3.9321074486 -3.812027216 -3.9784858227 -3.8308928013 -3.76583004
          -3.832647562 -3.9281663895 -3.9678997993 -3.8714644909 -3.9418253899 -3.9205646515
          -3.9147956371 -3.9930205345 -3.9707958698 -3.9230940342 -3.9676055908 -3.8794906139
          -3.9755885601 -4.0459356308 -3.9375991821 -3.986096859 -3.8351128101 -3.9147956371
          -3.8887736797 -3.6729969978 -3.9269163609 -3.6868593693 -3.6658627987 -4.0597057343
          -4.0008664131 -3.75390172 -3.9784858227 -3.8367433548 -3.76385355 -3.9724123478
          -3.7914338112 -3.8102214336 -4.0560212135 -3.78561759 -3.8933568001 -4.0397701263
          -4.0430011749 -3.7699649334 -3.9701731205 -3.8367433548 -3.75562644 -4.0517692566
          -3.5053508282 -3.5170800686 -4.0651898384 -3.4663233757 -4.0035572052 -3.5334727764
          -3.8887736797 -3.7275135517 -3.5326809883 -3.5578548908 -3.9381625652 -4.0618286133
          -3.7146303654 -4.0670552254 -3.561085701 -3.9375991821 -3.9931867123 -3.5810470581
          -3.7275135517 -4.0389761925 -3.9676055908 -3.6138548851 -4.0001654625 -3.3344676495
          -3.3490116596 -3.2665998936 -3.75562644 -3.3046543598 -3.617300272 -3.2926256657
          -3.962467432 -3.9707958698 -4.0336685181 -3.3187174797 -3.625825882 -3.7699649334
          -3.9841599464 -3.3444797993 -3.412705183 -3.617300272 -3.9418253899 -3.9459600449
          -3.78561759 -3.4927966595 -3.1927461624 -3.2162370682 -3.1061925888 -3.9557461739
          -3.6138548851 -3.1153020859 -3.5303177834 -3.0975704193 -3.9281663895 -3.7914338112
          -3.1308863163 -3.9317936897 -3.5810470581 -3.5657813549 -3.1887118816 -3.3027803898
          -3.76385355 -3.5303177834 -3.832647562 -3.561085701 -3.4192478657 -3.907481432
          -3.1147184372 -3.4927966595 -3.1537222862 -3.0270111561 -3.4830048084 -3.019068718
          -3.75390172 -3.5578548908 -3.0074431896 -3.8308928013 -3.0581088066 -3.412705183
          -3.5392482281 -3.1487798691 -3.5326809883 -3.6658627987 -3.4830048084 -3.2903754711
          -3.3444797993 -3.812027216 -3.4197976589 -3.4192478657 -3.1311738491 -3.5334727764
          -3.1922705173 -3.0684459209 -3.4848508835 -3.3187174797 -3.6868593693 -3.0690968037
          -3.0832390785 -3.3027803898 -3.5365002155 -3.1641373634 -3.2747161388 -3.4663233757
          -3.2926256657 -3.6729969978 -3.4848508835 -3.1887118816 -3.4122629166 -3.518859148
          -3.4197976589 -3.3046543598 -3.5170800686 -3.1308863163 -3.2619934082 -3.3510746956
          -3.5485985279 -3.2582287788 -3.3037917614 -3.368291378 -3.2903754711 -3.554381609
          -3.4846143723 -3.2665998936 -3.0975704193 -3.5053508282 -3.5872817039 -3.5485985279
          -3.1487798691 -3.687068224 -3.7395420074 -3.1153020859 -3.3490116596 -3.518859148
          -3.0581088066 -3.5072882175 -3.627453804 -3.7105269432 -3.5956406593 -3.7195248604
          -3.4122629166 -3.8468930721 -3.1061925888 -3.6404864788 -3.3344676495 -3.9809806347
          -3.0074431896 -4.0482463837 -3.2747161388 -3.7105269432 -4.0998983383 -3.2162370682
          -3.019068718 -4.1012630463 -3.7395420074 -3.1641373634 -4.0304269791 -3.8384702206
          -3.985853672 -4.031085968 -4.2381844521 -3.687068224 -3.0270111561 -3.1927461624
          -4.4055171013 -3.0832390785 -3.9004189968 -4.5228061676 -4.5567445755 -3.5872817039
          -4.0304269791 -4.5928258896 -3.1537222862 -3.0690968037 -4.1012630463 -4.5863904953
          -3.4846143723 -4.5126614571 -4.1961359978 -4.3550310135 -3.0684459209 -4.4602203369
          -4.0998983383 -3.1147184372 -4.7068796158 -3.368291378 -4.8606519699 -4.3653373718
          -4.9451785088 -4.0482463837 -4.98695755 -4.5126614571 -3.1922705173 -3.3037917614
          -5.0603289604 -3.9809806347 -4.5863904953 -5.0824813843 -3.1311738491 -5.0000901222
          -3.2582287788 -4.5059137344 -4.5928258896 -4.6474981308 -4.7579903603 -3.8468930721
          -4.9677343369 -4.8565936089 -5.0703949928 -5.1515250206 -4.5567445755 -3.3510746956
          -5.2466292381 -5.0000901222 -3.7195248604 -5.3785448074 -4.5228061676 -5.0824813843
          -5.4159030914 -3.2619934082 -3.5956406593 -5.270072937 -5.0603289604 -4.7162241936
          -4.4055171013 -4.8052110672 -4.8521924019 -4.96322155 -5.155538559 -5.0370140076
          -4.98695755 -5.1694550514 -3.627453804 -5.270072937 -4.2381844521 -5.3260369301
          -5.495698452 -4.9451785088 -5.4159030914 -3.5072882175 -5.5157532692 -4.031085968
          -5.3108210564 -5.3785448074 -4.8606519699 -4.8435902596 -4.8509073257 -4.7845315933
          -4.7791075706 -5.2889509201 -4.8954701424 -3.985853672 -5.2466292381 -5.1254863739
          -4.7068796158 -5.3108210564 -5.3261184692 -5.1515250206 -5.4895362854 -5.5157532692
          -3.8384702206 -4.4602203369 -5.494553566 -5.495698452 -5.0703949928 -5.3408646584
          -5.0012316704 -4.9123334885 -4.6974987984 -5.3890242577 -4.5695595741 -4.3550310135
          -4.8043842316 -5.3260369301 -4.9677343369 -5.198577404 -5.3408646584 -5.4067482948
          -5.1694550514 -4.1961359978 -5.4517745972 -5.494553566 -4.7579903603 -5.5019869804
          -5.0370140076 -5.4895362854 -5.4568047523 -5.3919973373 -5.2032213211 -4.6474981308
          -4.7462382317 -5.4074983597 -4.3855752945 -5.3261184692 -4.8319115639 -4.96322155
          -5.5830349922 -5.4568047523 -5.6109056473 -4.5059137344 -5.1254863739 -5.3808717728
          -4.8521924019 -5.5019869804 -5.6093525887 -4.8954701424 -5.4517745972 -5.6077036858
          -4.8052110672 -6.2487149239 -5.9607629776 -5.0076107979 -5.4494142532 -5.4067482948
          -3.9478430748 -4.7791075706 -4.7996988297 -6.2739787102 -5.6077036858 -4.7162241936
          -5.9746017456 -5.198577404 -4.7845315933 -5.4408793449 -5.6093525887 -5.7508378029
          -4.8043842316 -5.3808717728 -5.7668404579 -4.8509073257 -7.6749892235 -7.2453551292
          -5.6964221001 -5.6109056473 -5.5609908104 -4.5695595741 -3.2149069309 -3.7696199417
          -5.7668404579 -4.8435902596 -6.9936408997 -5.5830349922 -7.0142378807 -4.6974987984
          -5.7508378029 -5.8558263779 -5.8240408897 -4.8319115639 -5.4408793449 -4.9123334885
          -5.9444813728 -4.3855752945 -9.3889331818 -5.9746017456 -9.3779239655 -5.9460330009
          -5.093152523 -0.29167723656 -3.2551169395 -5.0012316704 -5.9444813728 -8.7074766159
          -6.2739787102 -4.7462382317 -8.0084552765 -5.8240408897 -6.3155107498 -4.7996988297
          -5.9870948792 -5.8558263779 -5.2032213211 -6.0050125122 -3.9478430748 -7.0142378807
          -6.0026292801 -5.3919973373 -6.0050125122 -6.9936408997 -5.0076107979 -5.9870948792
          -3.7696199417 -5.9607629776 -6.3155107498 -3.2149069309 -8.0084552765 -6.2487149239
          -5.5609908104 -8.7074766159 -3.2551169395 -7.2453551292 -0.29167723656 -7.6749892235
          -5.093152523 -9.3779239655 -9.3889331818
        </DataArray>
        <DataArray type="Float32" Name="VELOCITY" NumberOfComponents="3" ComponentName0="X-VELOCITY" ComponentName1="Y-VELOCITY" ComponentName2="Z-VELOCITY" format="ascii" RangeMin="0" RangeMax="8.3429431915">
          0 0 0 0 0 0
          5.0922818184 0.023434367031 0 5.018471241 0.034789916128 0
          4.7715249062 0.11016922444 0 0 0 0
          4.938621521 0.036094777286 0 4.657125473 0.13807825744 0
          4.5176439285 0.15650682151 0 4.7414369583 0.22947710752 0
          0 0 0 4.849108696 0.040501773357 0
          4.6323828697 0.26900535822 0 4.5141391754 0.29751592875 0
          4.3638124466 0.17313577235 0 4.8421735764 0.32432875037 0
          0 0 0 4.7502102852 0.044778712094 0
          4.7769989967 0.36179870367 0 4.3968577385 0.31751343608 0
          4.2018604279 0.18627354503 0 4.7155780792 0.38575181365 0
          4.2858786583 0.32919624448 0 5.0263075829 0.3712130487 0
          0 0 0 4.6665492058 0.39592078328 0
          5.0174221992 0.39749598503 0 4.6430802345 0.048350129277 0
          4.0365986824 0.19524110854 0 5.022023201 0.40684577823 0
          4.6312766075 0.3959376514 0 4.1841573715 0.33308443427 0
          5.0419669151 0.40234169364 0 0 0 0
          5.2598724365 0.36204454303 0 5.3065342903 0.37145373225 0
          4.5297207832 0.050977032632 0 5.3666400909 0.36555403471 0
          3.8720035553 0.20011226833 0 5.0702962875 0.39299553633 0
          4.6068506241 0.38909694552 0 4.0927596092 0.33055007458 0
          5.4317622185 0.35473540425 0 0 0 0
          5.5085978508 0.30159309506 0 5.0968708992 0.38434377313 0
          4.4123740196 0.052518386394 0 5.5938096046 0.2980889082 0
          5.4885263443 0.3511955142 0 4.5885925293 0.37794804573 0
          3.7112636566 0.20105072856 0 5.6823420525 0.28795102239 0
          4.0118560791 0.32238712907 0 5.7615671158 0.28661304712 0
          5.5281105042 0.35610669851 0 5.1151189804 0.37582409382 0
          5.7307844162 0.20858490467 0 0 0 0
          5.8234000206 0.30118358135 0 4.2933139801 0.052992422134 0
          5.8321843147 0.20232242346 0 4.5737724304 0.36201661825 0
          3.5570366383 0.19842474163 0 5.9277338982 0.19964259863 0
          5.554125309 0.35749700665 0 6.012512207 0.21259312332 0
          3.9420161247 0.30903723836 0 5.1276984215 0.35995161533 0
          5.8720121384 0.32015824318 0 6.0914421082 0.23718090355 0
          4.5640878677 0.33919933438 0 5.8972821236 0.10396484286 0
          0 0 0 4.1746006012 0.05259019509 0
          6.0007457733 0.10165026784 0 5.9238276482 0.31860378385 0
          3.4114785194 0.19301070273 0 5.5827364922 0.33714514971 0
          6.0999155045 0.10592718422 0 6.1771297455 0.25172886252 0
          5.1457614899 0.32883089781 0 3.8846650124 0.2914236784 0
          6.2013311386 0.12050487101 0 4.564622879 0.30899143219 0
          6.3148903847 0.13638070226 0 5.9970741272 0.27617022395 0
          5.9915537834 6.7748579269e-015 0 6.2801990509 0.23090282083 0
          0 0 0 5.6324300766 0.28586378694 0
          4.057721138 0.051711481065 0 6.0937886238 6.4964534437e-015 0
          3.2759082317 0.18619409204 0 6.2000355721 1.9421478687e-015 0
          5.1813402176 0.28226163983 0 6.4429135323 0.13652735949 0
          3.8412530422 0.27176889777 0 6.3220701218 -1.51777748e-015 0
          6.3985381126 0.16665039957 0 6.0977673531 0.19569338858 0
          6.4627065659 -2.6994656273e-015 0 4.5797624588 0.27491769195 0
          5.7107658386 0.21351668239 0 6.572576046 0.10876300931 0
          0 0 0 5.8972821236 -0.10396484286 0
          3.9432194233 0.050898026675 0 6.0007457733 -0.10165026784 0
          3.150343895 0.17980013788 0 5.2384285927 0.23045124114 0
          6.0999155045 -0.10592718422 0 6.6060872078 -3.0149320371e-015 0
          6.5154175758 0.078375972807 0 6.2013311386 -0.12050487101 0
          6.2137703896 0.10525771976 0 3.8118209839 0.25342804193 0
          6.6796517372 0.057205911726 0 6.7217459679 -2.1753512857e-015 0
          5.8082270622 0.14516584575 0 6.3148903847 -0.13638070226 0
          4.6091966629 0.24382761121 0 5.7307844162 -0.20858490467 0
          0 0 0 5.8321843147 -0.20232242346 0
          6.6088242531 0.0031433042604 0 3.8305447102 0.050654172897 0
          6.7427854538 0.0019952037837 0 5.3092246056 0.18906411529 0
          6.4429135323 -0.13652735949 0 5.9277338982 -0.19964259863 0
          3.0333614349 0.17551030219 0 6.3209700584 0.042634896934 0
          6.7821211815 -3.0259392302e-015 0 6.012512207 -0.21259312332 0
          3.7941699028 0.23963579535 0 5.9026265144 0.10718417913 0
          6.572576046 -0.10876300931 0 6.0914421082 -0.23718090355 0
          4.6468205452 0.22255590558 0 6.7577147484 -0.032094195485 0
          6.6644244194 -0.025131758302 0 6.7808909416 -7.664320872e-015 0
          5.5085978508 -0.30159309506 0 0 0 0
          6.1771297455 -0.25172886252 0 5.3773093224 0.17083501816 0
          6.396009922 0.034756679088 0 5.5938096046 -0.2980889082 0
          3.7182893753 0.051238186657 0 6.6796517372 -0.057205911726 0
          2.9225540161 0.17417140305 0 5.6823420525 -0.28795102239 0
          5.7615671158 -0.28661304712 0 3.784291029 0.23200345039 0
          6.2801990509 -0.23090282083 0 5.9700255394 0.11353493482 0
          6.7392501831 -1.3676431983e-014 0 6.741610527 -0.029012434185 0
          6.6835827827 0.0067652622238 0 4.6828846931 0.21447914839 0
          6.7427854538 -0.0019952037837 0 5.8234000206 -0.30118358135 0
          6.4278721809 0.084368221462 0 6.3985381126 -0.16665039957 0
          5.4250807762 0.1793230325 0 5.8720121384 -0.32015824318 0
          5.2598724365 -0.36204454303 0 0 0 0
          3.6047797203 0.052544750273 0 5.3065342903 -0.37145373225 0
          6.6973490715 -1.4811206257e-014 0 5.3666400909 -0.36555403471 0
          2.8154497147 0.17542310059 0 6.7577147484 0.032094195485 0
          6.7259106636 0.010635491461 0 5.4317622185 -0.35473540425 0
          5.9238276482 -0.31860378385 0 3.7777283192 0.22978441417 0
          5.996108532 0.15923155844 0 6.5154175758 -0.078375972807 0
          6.6831641197 0.085018225014 0 5.4885263443 -0.3511955142 0
          4.7078194618 0.21805299819 0 6.4233136177 0.16890287399 0
          5.9970741272 -0.27617022395 0 6.741610527 0.029012434185 0
          5.4415826797 0.20751203597 0 5.5281105042 -0.35610669851 0
          6.696480751 -1.2293911582e-014 0 6.6088242531 -0.0031433042604 0
          5.0263075829 -0.3712130487 0 0 0 0
          6.7422580719 0.069826513529 0 3.4887738228 0.054148200899 0
          5.0174221992 -0.39749598503 0 2.7104423046 0.17787030339 0
          5.022023201 -0.40684577823 0 5.554125309 -0.35749700665 0
          5.9829998016 0.22289860249 0 6.0977673531 -0.19569338858 0
          6.6879496574 0.17553402483 0 5.0419669151 -0.40234169364 0
          3.7710602283 0.23030474782 0 5.0702962875 -0.39299553633 0
          4.7158617973 0.22772619128 0 6.7259106636 -0.010635491461 0
          6.6644244194 0.025131758302 0 6.7606124878 -7.1720964738e-015 0
          6.4037179947 0.25155138969 0 5.5827364922 -0.33714514971 0
          6.2137703896 -0.10525771976 0 5.4273066521 0.24118314683 0
          5.0968708992 -0.38434377313 0 6.8082556725 0.12351935357 0
          4.8421735764 -0.32432875037 0 0 0 0
          4.7769989967 -0.36179870367 0 3.3699667454 0.05548261106 0
          4.7155780792 -0.38575181365 0 5.6324300766 -0.28586378694 0
          6.7188587189 0.24108928442 0 2.6072978973 0.17968928814 0
          5.9481444359 0.27699911594 0 5.1151189804 -0.37582409382 0
          6.6835827827 -0.0067652622238 0 4.6665492058 -0.39592078328 0
          3.762814045 0.23018889129 0 6.7422580719 -0.069826513529 0
          6.3209700584 -0.042634896934 0 6.8862214088 -3.2906183915e-015 0
          4.7069954872 0.23641628027 0 4.6312766075 -0.3959376514 0
          6.3943390846 0.29939028621 0 5.1276984215 -0.35995161533 0
          5.7107658386 -0.21351668239 0 6.9200282097 0.15148416162 0
          5.3936767578 0.26528182626 0 4.6068506241 -0.38909694552 0
          6.6831641197 -0.085018225014 0 6.7830433846 0.25949782133 0
          0 0 0 5.1457614899 -0.32883089781 0
          4.7414369583 -0.22947710752 0 6.8082556725 -0.12351935357 0
          6.396009922 -0.034756679088 0 4.6323828697 -0.26900535822 0
          3.2491149902 0.056061215699 0 4.5885925293 -0.37794804573 0
          5.9156246185 0.30050605536 0 4.5141391754 -0.29751592875 0
          2.5070781708 0.17932184041 0 5.8082270622 -0.14516584575 0
          7.0462446213 3.6520984897e-016 0 3.7535502911 0.22665505111 0
          4.3968577385 -0.31751343608 0 4.5737724304 -0.36201661825 0
          4.2858786583 -0.32919624448 0 4.6864590645 0.23826159537 0
          6.4122405052 0.29770067334 0 5.1813402176 -0.28226163983 0
          7.0558462143 0.14741121233 0 6.4278721809 -0.084368221462 0
          6.6879496574 -0.17553402483 0 4.1841573715 -0.33308443427 0
          5.3576669693 0.2699355185 0 5.9026265144 -0.10718417913 0
          6.9200282097 -0.15148416162 0 6.8721699715 0.2306111455 0
          4.5640878677 -0.33919933438 0 0 0 0
          4.7715249062 -0.11016922444 0 4.0927596092 -0.33055007458 0
          3.127797842 0.055626977235 0 5.9055500031 0.28629019856 0
          5.2384285927 -0.23045124114 0 4.657125473 -0.13807825744 0
          7.2051897049 4.1791001549e-016 0 4.5176439285 -0.15650682151 0
          2.4116344452 0.175917238 0 3.7452294827 0.21828329563 0
          4.3638124466 -0.17313577235 0 4.564622879 -0.30899143219 0
          7.1879920959 0.11798113585 0 6.4233136177 -0.16890287399 0
          6.4608831406 0.25129932165 0 4.0118560791 -0.32238712907 0
          6.7188587189 -0.24108928442 0 4.2018604279 -0.18627354503 0
          5.9700255394 -0.11353493482 0 4.662322998 0.23034094274 0
          7.0558462143 -0.14741121233 0 5.3092246056 -0.18906411529 0
          5.3352332115 0.25272899866 0 4.0365986824 -0.19524110854 0
          6.9693078995 0.16878592968 0 3.9420161247 -0.30903723836 0
          4.5797624588 -0.27491769195 0 7.3343067169 -1.6769070187e-015 0
          3.8720035553 -0.20011226833 0 5.9283165932 0.23935438693 0
          5.0922818184 -0.023434367031 0 0 0 0
          5.018471241 -0.034789916128 0 3.0079898834 0.054179519415 0
          6.4037179947 -0.25155138969 0 2.3229875565 0.1693866998 0
          4.938621521 -0.036094777286 0 5.996108532 -0.15923155844 0
          5.3773093224 -0.17083501816 0 6.7830433846 -0.25949782133 0
          3.8846650124 -0.2914236784 0 4.849108696 -0.040501773357 0
          3.7402787209 0.20505708456 0 7.2941527367 0.074515640736 0
          3.7112636566 -0.20105072856 0 6.5334196091 0.17487466335 0
          7.1879920959 -0.11798113585 0 4.7502102852 -0.044778712094 0
          4.6091966629 -0.24382761121 0 4.6427807808 0.21269184351 0
          5.3374843597 0.21675810218 0 4.6430802345 -0.048350129277 0
          7.0579833984 0.090240798891 0 3.5570366383 -0.19842474163 0
          3.8412530422 -0.27176889777 0 7.417579174 -6.0600264939e-015 0
          5.9829998016 -0.22289860249 0 6.3943390846 -0.29939028621 0
          5.4250807762 -0.1793230325 0 5.9854211807 0.16988052428 0
          4.5297207832 -0.050977032632 0 6.8721699715 -0.2306111455 0
          0 0 0 4.6468205452 -0.22255590558 0
          0 0 0 0 0 0
          2.8916578293 0.051900036633 0 0 0 0
          2.2428572178 0.16017089784 0 3.4114785194 -0.19301070273 0
          7.3616938591 0.025858357549 0 0 0 0
          3.740834713 0.18788716197 0 4.4123740196 -0.052518386394 0
          7.2941527367 -0.074515640736 0 6.6193900108 0.08308789134 0
          3.8118209839 -0.25342804193 0 0 0 0
          4.6345553398 0.1871342063 0 5.9481444359 -0.27699911594 0
          5.4415826797 -0.20751203597 0 3.2759082317 -0.18619409204 0
          7.4491090775 -9.0300852665e-015 0 4.2933139801 -0.052992422134 0
          5.3702721596 0.16730095446 0 7.1267981529 0.0068548573181 0
          4.6828846931 -0.21447914839 0 6.4122405052 -0.29770067334 0
          0 0 0 6.9693078995 -0.16878592968 0
          3.7941699028 -0.23963579535 0 0 0 0
          6.0728502274 0.08823762089 0 0 0 0
          2.7805080414 0.049039930105 0 4.1746006012 -0.05259019509 0
          7.3857502937 -0.022326143458 0 2.1724476814 0.14892798662 0
          3.150343895 -0.17980013788 0 7.3616938591 -0.025858357549 0
          6.7084732056 -0.011760780588 0 0 0 0
          5.4273066521 -0.24118314683 0 3.7483861446 0.16802810133 0
          5.9156246185 -0.30050605536 0 4.7078194618 -0.21805299819 0
          4.6424593925 0.1561024189 0 6.4608831406 -0.25129932165 0
          3.784291029 -0.23200345039 0 7.429101944 -6.5665344086e-015 0
          4.057721138 -0.051711481065 0 0 0 0
          7.1688370705 -0.071271620691 0 5.4348974228 0.11017083377 0
          3.0333614349 -0.17551030219 0 7.0579833984 -0.090240798891 0
          6.1825056076 0.0050527760759 0 7.3666615486 -0.064055159688 0
          0 0 0 5.3936767578 -0.26528182626 0
          4.7158617973 -0.22772619128 0 7.3857502937 0.022326143458 0