<?xml version="1.0"?>
<VTKFile type="PolyData" version="0.1" byte_order="LittleEndian" compressor="vtkZLibDataCompressor">
  <PolyData>
    <Piece NumberOfPoints="1071" NumberOfVerts="0" NumberOfLines="0" NumberOfStrips="0" NumberOfPolys="2000">
      <PointData>
        <DataArray type="Float32" Name="PRESSURE" format="ascii" RangeMin="-8.3404273987" RangeMax="2.7240698338">
          0 -0.081481389701 0 -0.13498570025 0 -0.22325916588
          -0.28484985232 -0.13556835055 -0.29268836975 0 -0.36884969473 -0.42717275023
          -0.14653795958 -0.30905875564 -0.44223371148 0 -0.50590091944 -0.56054794788
          -0.16875755787 -0.46293538809 -0.57852739096 -0.34373635054 -0.59966009855 0
          -0.63196784258 -0.50537925959 -0.17965340614 -0.68294745684 -0.69995385408 -0.36514410377
          -0.64405918121 -0.7164670229 -0.53154057264 -0.74700808525 0 -0.18726432323
          -0.7947499752 -0.37995091081 -0.80781507492 -0.66811275482 -0.7571310997 -0.81540119648
          -0.54721748829 -0.85372310877 0 -0.77310603857 -0.89910441637 -0.18971675634
          -0.67880117893 -0.84824818373 -0.90664666891 -0.38115686178 -0.90308195353 -0.54419767857
          -0.77528339624 -0.8524055481 0 -0.95708793402 -0.67090910673 -1.0013628006
          -0.18370138109 -0.92621171474 -1.003279686 -0.36458647251 -0.84550237656 -0.52004218102
          -0.98895686865 -0.91726118326 -0.76437109709 -0.64403969049 -1.0026727915 0
          -1.0630944967 -1.1076835394 -0.17532397807 -0.8348301053 -1.1053034067 -0.90305030346
          -0.34675741196 -0.74030846357 -0.98174208403 -1.083229661 -0.49644973874 -1.0898674726
          -0.61917847395 -0.89563375711 0 -0.81811189651 -1.1772233248 -0.9635964036
          -1.2234249115 -0.16328833997 -1.2192773819 -0.33348461986 -1.0604794025 -0.71880978346
          -1.1946302652 -0.48676210642 -0.88814663887 -0.96098852158 -0.61646294594 -1.1981445551
          -1.0426646471 -0.80321919918 -1.3028856516 0 -1.351554513 -0.17532397807
          -1.3488889933 -1.1658109426 -0.34675741196 -0.72476017475 -0.96099817753 -0.49644973874
          -1.0446074009 -1.3280221224 -0.88023853302 -0.81650054455 -1.1525948048 -0.61917847395
          -1.3330254555 0 -1.4401597977 -0.18370138109 -1.0476977825 -1.4914010763
          -0.95724827051 -1.3039302826 -0.71880978346 -0.36458647251 -1.4934141636 -1.1578156948
          -0.89547336102 -0.52004218102 -1.4822890759 -1.2983955145 -0.80321919918 -0.64403969049
          -1.4924433231 -1.0441026688 -1.1596870422 -0.96665924788 0 -1.5851708651
          -0.74030846357 -1.4712431431 -1.3056294918 -0.18971675634 -1.638127327 -0.88023853302
          -1.6470447779 -0.38115686178 -0.54419767857 -1.6494526863 -0.81811189651 -1.4738310575
          -1.041944623 -1.1537531614 -1.3037682772 -1.6657210588 -0.95724827051 -0.67090910673
          -1.4812343121 -0.88814663887 -1.6533533335 -0.76437109709 0 -1.7303940058
          -1.7832278013 -0.18726432323 -1.1397609711 -0.37995091081 -1.799577713 -1.0441026688
          -1.2944104671 -0.54721748829 -0.8348301053 -1.8158829212 -1.6605807543 -0.96099817753
          -1.4733192921 -0.67880117893 -1.8355973959 -1.6638641357 -0.89563375711 -1.1537531614
          -1.8284056187 -0.77528339624 -1.2727153301 -1.0476977825 0 -1.8659311533
          -1.4584982395 -1.9160622358 -0.17965340614 -1.9384758472 -0.36514410377 -0.84550237656
          -1.8329632282 -0.96098852158 -1.6458595991 -0.53154057264 -1.9655154943 -0.66811275482
          -1.9829323292 -1.2944104671 -1.1596870422 -1.4338775873 -1.8253160715 -0.90305030346
          -1.0446074009 -1.9738713503 -0.77310603857 -1.6223275661 0 -1.9814728498
          -0.16875755787 -2.0260386467 -0.34373635054 -0.9635964036 -1.7930648327 -2.0516581535
          -1.9669847488 -0.8524055481 -1.3037682772 -0.50537925959 -2.0838196278 -1.4584982395
          -1.1578156948 -1.5981682539 -2.0919826031 -0.64405918121 -1.9421503544 -0.91726118326
          -1.0426646471 -1.7592887878 -2.0733904839 -0.7571310997 -1.4733192921 -1.8950811625
          -2.0684137344 -0.98174208403 0 -1.6223275661 -1.3056294918 -0.14653795958
          -2.104820013 -0.84824818373 -2.0484316349 -0.30905875564 -2.1300628185 -1.1525948048
          -1.7380692959 -2.1609361172 -0.46293538809 -0.92621171474 -0.59966009855 -2.1539502144
          -2.0043303967 -1.0604794025 -1.8536897898 -1.4812343121 -1.6458595991 -0.7164670229
          -2.1204068661 -1.2983955145 -1.7592887878 -1.9471803904 -1.0026727915 -2.1215844154
          0 -0.81540119648 -2.1480004787 -2.0754947662 -1.1658109426 -0.13556835055
          -1.8378278017 -0.29268836975 -2.1693022251 -2.1931595802 -0.44223371148 -1.0898674726
          -1.9043956995 -1.6638641357 -2.015403986 -0.90308195353 -1.7930648327 -0.57852739096
          -1.4738310575 -2.1679332256 -1.8536897898 -1.3039302826 -2.1179139614 -0.69995385408
          -1.9567198753 -0.98895686865 -1.1981445551 -1.8961933851 -0.80781507492 -2.0562562943
          0 -2.1402702332 -0.13498570025 -2.1559841633 -1.8253160715 -2.1702890396
          -0.28484985232 -1.6605807543 -1.4712431431 -1.8950811625 -1.083229661 -0.42717275023
          -2.1830062866 -1.9198077917 -0.90664666891 -1.9874098301 -1.9043956995 -0.56054794788
          -1.3330254555 -2.140045166 -2.0761210918 -0.68294745684 -1.9366227388 -1.003279686
          -1.1946302652 -1.9206484556 -1.8329632282 -1.9421503544 -1.6533533335 -2.0047111511
          -0.7947499752 -1.9471803904 -2.1284267902 -1.4924433231 0 -0.081481389701
          -2.1340515614 -0.22325916588 -2.1390981674 -1.1053034067 -1.9112708569 -0.36884969473
          -2.1386339664 -0.89910441637 -1.9198077917 -1.9361087084 -1.3280221224 -0.50590091944
          -2.0820584297 -1.9669847488 -1.8284056187 -1.2192773819 -1.9203826189 -1.0013628006
          -2.0102698803 -1.9009814262 -1.6657210588 -2.0043303967 -0.63196784258 -1.9567198753
          -1.4822890759 -0.74700808525 -1.9383275509 -2.0941245556 -2.0916728973 -1.1076835394
          -1.8894447088 -2.0862662792 -1.3488889933 -1.9112708569 -1.8792175055 -0.85372310877
          -1.9738713503 -2.0730736256 -2.0484316349 -1.8355973959 -2.0102696419 -2.015403986
          -1.6494526863 -1.9026241302 -1.2234249115 -0.95708793402 -1.8642926216 -1.9393924475
          -1.4934141636 -1.9366227388 -1.8774824142 -1.8646903038 -1.0630944967 -2.0733904839
          -1.9829323292 -1.8894447088 -1.351554513 -2.0482635498 -2.0410585403 -1.8158829212
          -2.0754947662 -2.0254328251 -1.8368822336 -1.9874098301 -2.0029888153 -1.6470447779
          -1.9440641403 -1.8741468191 -1.1772233248 -1.4914010763 -1.8430958986 -1.9009814262
          -1.8850181103 -2.0919826031 -1.9655154943 -2.1204068661 -1.844851017 -2.0562562943
          -1.799577713 -1.8646903038 -1.3028856516 -1.8504710197 -2.0026297569 -1.638127327
          -1.9361087084 -1.9949632883 -1.9710403681 -1.8314919472 -1.9461688995 -1.8473497629
          -1.4401597977 -1.8642926216 -1.9029215574 -2.1539502144 -2.0838196278 -1.8568198681
          -1.9384758472 -2.1179139614 -1.8679449558 -2.0047111511 -1.7832278013 -1.8504710197
          -1.8617284298 -1.8657488823 -1.5851708651 -1.8792175055 -1.9675378799 -1.964001298
          -1.8827648163 -2.1609361172 -1.9351363182 -2.1679332256 -2.0516581535 -1.8449765444
          -1.9173607826 -1.8430958986 -2.0761210918 -1.9160622358 -1.9012260437 -1.9226036072
          -1.9383275509 -1.7303940058 -1.9018883705 -1.8657488823 -1.8368822336 -1.9289450645
          -1.9391880035 -2.1300628185 -2.1931595802 -2.140045166 -2.0260386467 -1.9958760738
          -1.9496101141 -1.8659311533 -2.0102698803 -1.9541828632 -1.8568198681 -1.8924800158
          -1.9241071939 -1.9234226942 -1.8774824142 -2.0415434837 -1.9422322512 -2.1693022251
          -1.9289450645 -1.9854136705 -2.1830062866 -2.104820013 -1.8314919472 -2.0820584297
          -1.9814728498 -2.0409712791 -2.0667784214 -1.9393924475 -1.9226036072 -2.148680687
          -1.9504835606 -1.9959220886 -1.96565938 -1.844851017 -1.9368569851 -1.9602612257
          -2.1702890396 -2.1480004787 -2.1859123707 -2.1386339664 -2.0684137344 -2.0145561695
          -2.0102696419 -2.0409712791 -1.8827648163 -2.0971963406 -2.1720221043 -1.8850181103
          -2.2084333897 -2.0415434837 -2.1559841633 -2.1390981674 -2.1215844154 -2.2928516865
          -2.1264855862 -1.8617284298 -1.967138052 -2.0730736256 -1.993454814 -1.9657533169
          -2.0140132904 -2.305989027 -1.9440641403 -2.0945646763 -1.9958760738 -2.1720221043
          -2.2007858753 -1.8679449558 -2.2739284039 -2.1340515614 -2.1402702332 -2.0862662792
          -2.3149425983 -2.1859123707 -1.9391880035 -2.0029888153 -2.2359890938 -2.3768482208
          -1.9939824343 -2.0301895142 -1.9029215574 -2.0004193783 -2.3598687649 -2.0668568611
          -2.148680687 -2.2739284039 -2.1552364826 -2.1284267902 -1.9018883705 -2.0916728973
          -2.0254328251 -2.2599072456 -2.3142440319 -1.9461688995 -2.305989027 -2.3490362167
          -2.0667784214 -2.2929649353 -1.9012260437 -2.3763718605 -2.0941245556 -2.0260789394
          -2.0698924065 -2.2928516865 -2.0329260826 -2.0410585403 -2.3415646553 -1.9854136705
          -2.3142440319 -2.1050946712 -1.9710403681 -2.1781919003 -1.9173607826 -2.2986738682
          -2.2566719055 -2.2084333897 -2.3598687649 -2.3058941364 -1.9422322512 -2.3014347553
          -2.0482635498 -1.9949632883 -2.3075196743 -2.3768482208 -2.0623276234 -1.9351363182
          -2.0971963406 -2.1114683151 -2.0622324944 -2.2986738682 -2.2809245586 -2.125962019
          -1.9234226942 -2.1634721756 -2.2595040798 -2.3149425983 -2.2018120289 -2.3415646553
          -2.0026297569 -2.0145561695 -2.2153329849 -1.964001298 -2.2853684425 -2.2141268253
          -1.9241071939 -2.3763718605 -2.2007858753 -2.1073727608 -2.2595040798 -2.1604983807
          -2.218506813 -2.0961518288 -1.9602612257 -2.1404788494 -1.9675378799 -2.1324067116
          -2.3490362167 -2.2261924744 -2.0945646763 -2.2809245586 -2.1317155361 -1.9541828632
          -2.127352953 -2.2624890804 -1.9368569851 -2.2599072456 -2.1437959671 -2.3075196743
          -2.0140132904 -2.2261924744 -2.1713969707 -2.1829600334 -2.2285997868 -1.9496101141
          -2.1501042843 -2.1713161469 -2.3058941364 -1.96565938 -2.1216855049 -2.1552364826
          -2.2116804123 -2.218506813 -2.0951566696 -1.9657533169 -2.0926864147 -2.2409901619
          -2.2566719055 -2.2141268253 -2.1318602562 -2.0668568611 -1.9504835606 -2.2116804123
          -2.1899943352 -2.2676012516 -1.993454814 -2.3303101063 -2.2428810596 -2.2153329849
          -2.1781919003 -2.2461533546 -2.1829600334 -2.224496603 -2.1706511974 -2.0004193783
          -2.1364374161 -2.2382993698 -2.2018120289 -2.1473655701 -1.967138052 -2.1437959671
          -2.1050946712 -2.1977517605 -2.0301895142 -2.224496603 -2.252175808 -2.1634721756
          -2.4078521729 -2.4781806469 -2.127352953 -2.3905246258 -2.0329260826 -2.3885040283
          -2.1899943352 -2.2803506851 -2.3075258732 -2.2812209129 -1.9939824343 -2.1317155361
          -2.2834293842 -2.125962019 -2.3037414551 -2.1318602562 -2.0698924065 -2.3451898098
          -2.2803506851 -2.1324067116 -2.0926864147 -2.3775184155 -2.0622324944 -2.5975060463
          -2.6772856712 -2.6000423431 -2.252175808 -2.6092464924 -2.3900840282 -2.5408039093
          -2.0260789394 -2.0951566696 -2.1404788494 -2.5299427509 -2.3882026672 -2.1977517605
          -2.1114683151 -2.5499649048 -2.5626294613 -2.3900840282 -2.1216855049 -2.0961518288
          -2.1473655701 -2.5597186089 -2.8306314945 -2.9203805923 -2.8644049168 -2.0623276234
          -2.3775184155 -2.9013164043 -2.5446670055 -2.8574929237 -2.1713161469 -2.1364374161
          -2.8601419926 -2.1604983807 -2.3451898098 -2.5302248001 -2.8577027321 -2.827034235
          -2.1706511974 -2.5446670055 -2.1501042843 -2.3037414551 -2.778573513 -2.1073727608
          -3.0866758823 -2.5597186089 -3.1844995022 -3.1588945389 -2.7225065231 -3.2363600731
          -2.2461533546 -2.2812209129 -3.2228486538 -2.2285997868 -3.2295124531 -2.5626294613
          -2.675391674 -3.1858413219 -2.3075258732 -2.2428810596 -2.7225065231 -3.1042304039
          -2.5499649048 -2.1713969707 -3.0049498081 -2.778573513 -3.3295667171 -2.3885040283
          -3.4296579361 -3.4382488728 -2.9016158581 -2.5299427509 -2.3303101063 -3.5600409508
          -3.5740561485 -2.827034235 -2.8062989712 -3.5681319237 -3.4694459438 -2.3905246258
          -2.5408039093 -2.2676012516 -2.9016158581 -2.8577027321 -3.3380913734 -3.1949203014
          -3.0049498081 -2.6092464924 -2.4781806469 -2.8601419926 -3.5109436512 -3.6017568111
          -3.0537159443 -3.637295723 -3.7891397476 -3.8131232262 -3.1042304039 -2.9153325558
          -3.7711100578 -2.6000423431 -2.8574929237 -2.4078521729 -3.6141512394 -3.0537159443
          -3.1858413219 -3.4483866692 -3.2846968174 -2.9013164043 -2.6772856712 -3.1949203014
          -3.2295124531 -3.5802090168 -3.6440536976 -3.1279110909 -3.6836252213 -3.8262739182
          -3.3380913734 -3.8263745308 -2.8644049168 -2.969492197 -2.5975060463 -3.7302644253
          -3.2228486538 -3.5354447365 -3.4694459438 -3.1279110909 -3.3676023483 -2.9203805923
          -3.2363600731 -3.2125377655 -3.2846968174 -3.5681319237 -3.0597031116 -3.5026657581
          -3.5201716423 -3.5294954777 -3.6075015068 -3.4483866692 -3.1588945389 -2.8306314945
          -3.5514450073 -3.5740561485 -2.9082226753 -3.4146883488 -3.2309007645 -3.6141512394
          -3.0597031116 -3.0963301659 -3.1844995022 -3.5600409508 -3.2125377655 -2.9666130543
          -3.7711100578 -2.8228230476 -3.2807841301 -3.2417926788 -3.4382488728 -3.1926047802
          -3.3676023483 -3.0866758823 -3.1659760475 -3.8131232262 -3.0548882484 -2.7022249699
          -2.9279565811 -3.5354447365 -2.8010303974 -2.8228230476 -3.4296579361 -3.7891397476
          -2.7138578892 -3.7302644253 -2.9666130543 -2.6111562252 -3.3295667171 -2.4702963829
          -3.637295723 -2.9655256271 -3.0963301659 -2.8808057308 -2.7733948231 -3.8263745308
          -2.6547722816 -2.4095404148 -2.5359344482 -2.4627451897 -3.2309007645 -3.6017568111
          -2.388874054 -2.4702963829 -3.8262739182 -2.3349885941 -3.4146883488 -2.6111562252
          -2.2530834675 -3.5109436512 -3.6836252213 -2.1138968468 -2.7138578892 -2.6436264515
          -3.5514450073 -2.5462946892 -2.4193537235 -2.282980442 -2.1492927074 -2.2201838493
          -2.8010303974 -2.1889979839 -3.6440536976 -2.1138968468 -3.6075015068 -2.1047785282
          -2.0443794727 -2.9279565811 -2.2530834675 -3.5802090168 -1.9699741602 -3.5294954777
          -1.8427494764 -2.3349885941 -3.0548882484 -2.3992424011 -2.3309619427 -2.2443518639
          -2.1882772446 -1.9351087809 -2.2118725777 -3.5201716423 -2.388874054 -2.1580424309
          -3.1659760475 -1.8427494764 -1.9546768665 -2.4627451897 -1.8084470034 -1.9699741602
          -3.5026657581 -3.1926047802 -1.7181270123 -2.0443794727 -2.5359344482 -1.5801559687
          -2.2690618038 -2.2575101852 -2.2520356178 -1.52472651 -2.3287670612 -3.2417926788
          -2.4325025082 -2.1047785282 -2.6547722816 -2.3034727573 -1.5801559687 -1.8184224367
          -2.1889979839 -3.2807841301 -1.4611433744 -1.7181270123 -2.7733948231 -1.3619681597
          -2.2201838493 -1.8084470034 -1.2007385492 -2.2243671417 -2.2624864578 -2.8808057308
          -2.3215062618 -0.87445676327 -2.5056884289 -1.9546768665 -2.777326107 -2.282980442
          -2.615755558 -1.2007385492 -1.5830602646 -2.9655256271 -2.1580424309 -0.92549985647
          -2.4193537235 -1.3619681597 -1.011336565 -2.2118725777 -1.4611433744 -0.94468009472
          -2.5462946892 -2.2066483498 -2.2542538643 -2.2885584831 -0.49488916993 -1.8184224367
          -2.4520647526 -2.1882772446 -3.3007221222 -3.3511362076 -0.94468009472 -2.6436264515
          -1.5163679123 -2.3034727573 -2.2443518639 -0.27472814918 -1.011336565 -0.72039467096
          -2.4325025082 -0.92549985647 -0.87805652618 -2.3309619427 -2.2021641731 -2.2310326099
          -0.62790709734 -1.5830602646 -2.1164381504 -2.3287670612 -1.8079507351 -3.773014307
          -0.87805652618 -2.3992424011 -5.1725091934 -2.615755558 -2.4727118015 -2.2520356178
          -0.72039467096 0.83358120918 0.34037584066 -2.777326107 -0.27472814918 -2.2575101852
          -0.67776525021 -2.5056884289 -2.2479071617 -1.5163679123 -2.1670465469 -0.76951223612
          -1.161256671 -1.2172805071 -6.6253066063 -2.2690618038 -0.67776525021 -8.3404273987
          -3.3511362076 -2.3215062618 -2.2808051109 0.34037584066 2.7240698338 -3.3007221222
          1.5104112625 0.83358120918 -2.2624864578 -0.20623242855 -2.4520647526 -2.4727118015
          -0.56130862236 -2.2243671417 -0.20623242855 -5.1725091934 -2.2885584831 1.5104112625
          -3.773014307 -2.2542538643 2.7240698338 -1.8079507351 -2.2808051109 -2.2066483498
          -2.1164381504 -8.3404273987 -6.6253066063 -2.2310326099 -1.2172805071 -2.2021641731
          -1.161256671 -2.1670465469 -2.2479071617
        </DataArray>
        <DataArray type="Float32" Name="VELOCITY" NumberOfComponents="3" ComponentName0="X-VELOCITY" ComponentName1="Y-VELOCITY" ComponentName2="Z-VELOCITY" format="ascii" RangeMin="0" RangeMax="8.0882225037">
          0 0 0 0 0 0
          3.9743881226 0.046080518514 0 3.8671364784 0.053530395031 0
          3.1115605831 0.16012960672 0 0 0 0
          3.764336586 0.047708213329 0 3.0384249687 0.15338347852 0
          2.9500260353 0.15062767267 0 3.842977047 0.21949611604 0
          0 0 0 3.6652493477 0.044287700206 0
          3.8157215118 0.21332234144 0 3.7893867493 0.20646576583 0
          2.8628196716 0.14351186156 0 4.6511073112 0.22744297981 0
          0 0 0 3.571750164 0.041461087763 0
          4.6479797363 0.2260196358 0 3.7690346241 0.19364887476 0
          2.7797408104 0.13638915122 0 4.6399445534 0.2169213146 0
          3.7563784122 0.17914769053 0 5.3057804108 0.2267961055 0
          0 0 0 4.6354842186 0.19853952527 0
          5.2922902107 0.23821088672 0 3.4827265739 0.039352156222 0
          2.7025191784 0.12956859171 0 5.2781157494 0.22642986476 0
          4.6388950348 0.17600466311 0 3.7522406578 0.16463115811 0
          5.2760334015 0.19800338149 0 0 0 0
          5.7991681099 0.24071271718 0 5.7920475006 0.25173288584 0
          3.397313118 0.037997193635 0 5.798019886 0.22546510398 0
          2.6311964989 0.12428049743 0 5.2913269997 0.1620246619 0
          4.651930809 0.15304100513 0 3.7560827732 0.15259213746 0
          5.8268446922 0.17610025406 0 0 0 0
          6.228887558 0.24150919914 0 5.3238334656 0.12626734376 0
          3.314084053 0.037599943578 0 6.2642140388 0.23336327076 0
          5.877726078 0.11976506561 0 4.6735844612 0.13403850794 0
          2.5646424294 0.12145587057 0 6.3189320564 0.18423146009 0
          3.7661890984 0.14480386674 0 6.389383316 0.11520850658 0
          5.9447617531 0.068415910006 0 5.3699855804 0.097634419799 0
          6.6027708054 0.19337402284 0 0 0 0
          6.46615839 0.046945817769 0 3.2313117981 0.038164995611 0
          6.6863832474 0.16513669491 0 4.7010850906 0.12189824134 0
          2.5011191368 0.12137958407 0 6.7729539871 0.10627828538 0
          6.01998806 0.030929593369 0 6.8485860825 0.03952652961 0
          3.780200243 0.14185810089 0 5.4244084358 0.080379888415 0
          6.5397672653 -0.0074146417901 0 6.9041128159 -0.017345234752 0
          4.7307505608 0.11773554981 0 6.8544993401 0.099657058716 0
          0 0 0 3.1472959518 0.039505217224 0
          6.9522981644 0.074242122471 0 6.6015667915 -0.038617555052 0
          2.4388580322 0.12364678085 0 6.0940084457 0.013207929209 0
          7.0247678757 0.034492809325 0 6.9358010292 -0.054099362344 0
          5.4802527428 0.076647996902 0 3.7955665588 0.14320553839 0
          7.0615587234 -0.0042201192118 0 4.7583956718 0.12113868445 0
          7.0640115738 -0.032643225044 0 6.6431927681 -0.039830774069 0
          6.9802660942 5.0752117793e-015 0 6.943426609 -0.063354812562 0
          0 0 0 6.1556944847 0.019125776365 0
          3.0607643127 0.041234016418 0 7.0594034195 1.518185644e-015 0
          2.3765382767 0.12720613182 0 7.0964717865 1.0879817394e-015 0
          5.5293087959 0.086739331484 0 7.04053545 -0.045545779169 0
          3.8099007607 0.14729014039 0 7.0913357735 -7.214445633e-017 0
          6.9296946526 -0.040161989629 0 6.657392025 -0.0075767999515 0
          7.0545639992 3.0159177717e-015 0 4.7797613144 0.13024555147 0
          6.1938018799 0.049003526568 0 7.003970623 -0.03909092769 0
          0 0 0 6.8544993401 -0.099657058716 0
          2.9712495804 0.042808331549 0 6.9522981644 -0.074242122471 0
          2.3136541843 0.13050788641 0 5.5634737015 0.108183451 0
          7.0247678757 -0.034492809325 0 7.0026860237 6.0229463561e-015 0
          6.9015965462 0.014467848465 0 7.0615587234 0.0042201192118 0
          6.6418433189 0.053616147488 0 3.8213469982 0.15176250041 0
          6.970703125 -0.011859456077 0 6.9565386772 8.3014251736e-015 0
          6.2015304565 0.096244379878 0 7.0640115738 0.032643225044 0
          4.7915182114 0.14165470004 0 6.6027708054 -0.19337402284 0
          0 0 0 6.6863832474 -0.16513669491 0
          6.871887207 0.088375434279 0 2.8793644905 0.043614480644 0
          6.9589805603 0.031883701682 0 5.5779919624 0.13453917205 0
          7.04053545 0.045545779169 0 6.7729539871 -0.10627828538 0
          2.2507376671 0.13176269829 0 6.6036705971 0.12720096111 0
          6.9388275146 1.1585858954e-014 0 6.8485860825 -0.03952652961 0
          3.8290240765 0.15382772684 0 6.1816892624 0.14590248466 0
          7.003970623 0.03909092769 0 6.9041128159 0.017345234752 0
          4.7927889824 0.15061141551 0 6.984172821 0.079924941063 0
          6.8571958542 0.15790905058 0 6.9682469368 1.2713092941e-014 0
          6.228887558 -0.24150919914 0 0 0 0
          6.9358010292 0.054099362344 0 5.5747823715 0.15583378077 0
          6.5598707199 0.18743278086 0 6.2642140388 -0.23336327076 0
          2.7868931293 0.043090559542 0 6.970703125 0.011859456077 0
          2.1893811226 0.12930035591 0 6.3189320564 -0.18423146009 0
          6.389383316 -0.11520850658 0 3.8334114552 0.15078291297 0
          6.943426609 0.063354812562 0 6.1478819847 0.17875532806 0
          7.050760746 1.266898116e-014 0 7.0515742302 0.11501863599 0
          6.8713912964 0.19665873051 0 4.7863249779 0.15195800364 0
          6.9589805603 -0.031883701682 0 6.46615839 -0.046945817769 0
          6.5309095383 0.21039743721 0 6.9296946526 0.040161989629 0
          5.5629763603 0.16174206138 0 6.5397672653 0.0074146417901 0
          5.7991681099 -0.24071271718 0 0 0 0
          2.6966469288 0.040859051049 0 5.7920475006 -0.25173288584 0
          7.1734471321 9.4125723112e-015 0 5.798019886 -0.22546510398 0
          2.1320226192 0.12194835395 0 6.984172821 -0.079924941063 0
          7.1513137817 0.12311278284 0 5.8268446922 -0.17610025406 0
          6.6015667915 0.038617555052 0 3.8364012241 0.14066372812 0
          6.1192011833 0.17993569374 0 6.9015965462 -0.014467848465 0
          6.9177908897 0.18904550374 0 5.877726078 -0.11976506561 0
          4.7781906128 0.14177767932 0 6.5308132172 0.18628183007 0
          6.6431927681 0.039830774069 0 7.0515742302 -0.11501863599 0
          5.5553469658 0.1461058259 0 5.9447617531 -0.068415910006 0
          7.3072123528 6.8087422094e-015 0 6.871887207 -0.088375434279 0
          5.3057804108 -0.2267961055 0 0 0 0
          7.26049757 0.10112308711 0 2.6120889187 0.036822419614 0
          5.2922902107 -0.23821088672 0 2.0815184116 0.10930034518 0
          5.2781157494 -0.22642986476 0 6.01998806 -0.030929593369 0
          6.1113395691 0.14621150494 0 6.657392025 0.0075767999515 0
          6.9864606857 0.13833214343 0 5.2760334015 -0.19800338149 0
          3.8408095837 0.12277162075 0 5.2913269997 -0.1620246619 0
          4.775698185 0.11890262365 0 7.1513137817 -0.12311278284 0
          6.8571958542 -0.15790905058 0 7.4186191559 3.5164632098e-015 0
          6.5608553886 0.12346556038 0 6.0940084457 -0.013207929209 0
          6.6418433189 -0.053616147488 0 5.5626358986 0.10969497263 0
          5.3238334656 -0.12626734376 0 7.3526062965 0.05788045004 0
          4.6511073112 -0.22744297981 0 0 0 0
          4.6479797363 -0.2260196358 0 2.5368192196 0.031184734777 0
          4.6399445534 -0.2169213146 0 6.1556944847 -0.019125776365 0
          7.0590968132 0.063030056655 0 2.0406270027 0.091782145202 0
          6.1301045418 0.086612954736 0 5.3699855804 -0.097634419799 0
          6.8713912964 -0.19665873051 0 4.6354842186 -0.19853952527 0
          3.8494739532 0.097847245634 0 7.26049757 -0.10112308711 0
          6.6036705971 -0.12720096111 0 7.4834418297 1.3575879854e-015 0
          4.7846522331 0.085333175957 0 4.6388950348 -0.17600466311 0
          6.6107711792 0.042255721986 0 5.4244084358 -0.080379888415 0
          6.1938018799 -0.049003526568 0 7.4081730843 0.0081319054589 0
          5.589319706 0.059415828437 0 4.651930809 -0.15304100513 0
          6.9177908897 -0.18904550374 0 7.1176195145 -0.013938641176 0
          0 0 0 5.4802527428 -0.076647996902 0
          3.842977047 -0.21949611604 0 7.3526062965 -0.05788045004 0
          6.5598707199 -0.18743278086 0 3.8157215118 -0.21332234144 0
          2.4740390778 0.024400154129 0 4.6735844612 -0.13403850794 0
          6.1707348824 0.016970196739 0 3.7893867493 -0.20646576583 0
          2.0115504265 0.070530653 0 6.2015304565 -0.096244379878 0
          7.4937500954 1.5217289946e-015 0 3.86434412 0.067837357521 0
          3.7690346241 -0.19364887476 0 4.7010850906 -0.12189824134 0
          3.7563784122 -0.17914769053 0 4.807393074 0.045401446521 0
          6.6650791168 -0.035373516381 0 5.5293087959 -0.086739331484 0
          7.4204034805 -0.034801173955 0 6.5309095383 -0.21039743721 0
          6.9864606857 -0.13833214343 0 3.7522406578 -0.16463115811 0
          5.6327219009 0.0051129050553 0 6.1816892624 -0.14590248466 0
          7.4081730843 -0.0081319054589 0 7.1506280899 -0.074457742274 0
          4.7307505608 -0.11773554981 0 0 0 0
          3.1115605831 -0.16012960672 0 3.7560827732 -0.15259213746 0
          2.4260895252 0.017084579915 0 6.2215890884 -0.046679761261 0
          5.5634737015 -0.108183451 0 3.0384249687 -0.15338347852 0
          7.4565672874 -5.1470470554e-016 0 2.9500260353 -0.15062767267 0
          1.9956275225 0.047189734876 0 3.88595891 0.035438619554 0
          2.8628196716 -0.14351186156 0 4.7583956718 -0.12113868445 0
          7.3943362236 -0.062759868801 0 6.5308132172 -0.18628183007 0
          6.709373951 -0.092691905797 0 3.7661890984 -0.14480386674 0
          7.0590968132 -0.063030056655 0 2.7797408104 -0.13638915122 0
          6.1478819847 -0.17875532806 0 4.8422970772 0.0044135637581 0
          7.4204034805 0.034801173955 0 5.5779919624 -0.13453917205 0
          5.6846618652 -0.043491188437 0 2.7025191784 -0.12956859171 0
          7.1551132202 -0.10816784203 0 3.780200243 -0.14185810089 0
          4.7797613144 -0.13024555147 0 7.3880701065 -1.8363612887e-015 0
          2.6311964989 -0.12428049743 0 6.268611908 -0.091776914895 0
          3.9743881226 -0.046080518514 0 0 0 0
          3.8671364784 -0.053530395031 0 2.3940989971 0.0099313873798 0
          6.5608553886 -0.12346556038 0 1.9931839705 0.023726988584 0
          3.764336586 -0.047708213329 0 6.1192011833 -0.17993569374 0
          5.5747823715 -0.15583378077 0 7.1176195145 0.013938641176 0
          3.7955665588 -0.14320553839 0 3.6652493477 -0.044287700206 0
          3.9133961201 0.0036825656425 0 7.3425469398 -0.072323523462 0
          2.5646424294 -0.12145587057 0 6.7335700989 -0.11956788599 0
          7.3943362236 0.062759868801 0 3.571750164 -0.041461087763 0
          4.7915182114 -0.14165470004 0 4.8843417168 -0.032357979566 0
          5.7337398529 -0.078208953142 0 3.4827265739 -0.039352156222 0
          7.1347212791 -0.11063349992 0 2.5011191368 -0.12137958407 0
          3.8099007607 -0.14729014039 0 7.3081440926 -3.7096129798e-015 0
          6.1113395691 -0.14621150494 0 6.6107711792 -0.042255721986 0
          5.5629763603 -0.16174206138 0 6.2983379364 -0.1096514836 0
          3.397313118 -0.037997193635 0 7.1506280899 0.074457742274 0
          0 0 0 4.7927889824 -0.15061141551 0
          0 0 0 0 0 0
          2.3777284622 0.0036462042481 0 0 0 0
          2.0034716129 0.0022935117595 0 2.4388580322 -0.12364678085 0
          7.2809891701 -0.062629275024 0 0 0 0
          3.9444971085 -0.02431765385 0 3.314084053 -0.037599943578 0
          7.3425469398 0.072323523462 0 6.7323718071 -0.11079134047 0
          3.8213469982 -0.15176250041 0 0 0 0
          4.9259648323 -0.060054123402 0 6.1301045418 -0.086612954736 0
          5.5553469658 -0.1461058259 0 2.3765382767 -0.12720613182 0
          7.2374930382 -9.5240808106e-015 0 3.2313117981 -0.038164995611 0
          5.7671289444 -0.092498540878 0 7.0971961021 -0.080759711564 0
          4.7863249779 -0.15195800364 0 6.6650791168 0.035373516381 0
          0 0 0 7.1551132202 0.10816784203 0
          3.8290240765 -0.15382772684 0 0 0 0
          6.2995390892 -0.094905301929 0 0 0 0
          2.3750288486 -0.0011147926562 0 3.1472959518 -0.039505217224 0
          7.2265481949 -0.034010048956 0 2.0246577263 -0.014945417643 0
          2.3136541843 -0.13050788641 0 7.2809891701 0.062629275024 0
          6.7049098015 -0.065087907016 0 0 0 0
          5.5626358986 -0.10969497263 0 3.9761226177 -0.045566957444 0
          6.1707348824 -0.016970196739 0 4.7781906128 -0.14177767932 0
          4.9578375816 -0.074374809861 0 6.709373951 0.092691905797 0
          3.8334114552 -0.15078291297 0 7.1965460777 -1.060371917e-014 0
          3.0607643127 -0.041234016418 0 0 0 0
          7.0526843071 -0.020591972396 0 5.7721538544 -0.081688627601 0
          2.2507376671 -0.13176269829 0 7.1347212791 0.11063349992 0