<?xml version="1.0"?>
<VTKFile type="PolyData" version="0.1" byte_order="LittleEndian" compressor="vtkZLibDataCompressor">
  <PolyData>
    <Piece NumberOfPoints="1071" NumberOfVerts="0" NumberOfLines="0" NumberOfStrips="0" NumberOfPolys="2000">
      <PointData>
        <DataArray type="Float32" Name="PRESSURE" format="ascii" RangeMin="-11.179768562" RangeMax="0.40918433666">
          0 0.00026369109401 0 -0.00017747448874 0 0.00016687191965
          -0.00038674790994 0.00012252180022 5.0140792155e-005 0 -3.621547512e-005 -0.00055600551423
          -0.00020266455249 -0.00030359032098 -9.2257454526e-005 0 -0.0002270269033 -0.0006652555312
          -2.8677866794e-005 -0.00037681416143 -0.00023953933851 -0.00011374822498 -0.0004365942732 0
          -0.0003705037816 -0.00020573173242 -9.0640693088e-005 -0.00071784318425 -0.00036147824721 -0.00017037126236
          -0.00029193336377 -0.00048205652274 -0.00024333545298 -0.00045908460743 0 -6.5206040745e-005
          -0.00072479364462 -0.0001409289689 -0.00044776537106 -0.0003100366157 -0.00036526587792 -0.00051193509717
          -0.0002148282656 -0.00049810908968 0 -0.00036897973041 -0.00069844926475 -7.0001224231e-005
          -0.00028442440089 -0.00042229681276 -0.00049905542983 -0.00014320855553 -0.00052605330711 -0.00021408093744
          -0.00034800870344 -0.00041878942284 0 -0.00049631862203 -0.0002816405904 -0.00064841139829
          -6.8533081503e-005 -0.0004623606801 -0.0005207961658 -0.0001402409689 -0.00040459353477 -0.00021064693283
          -0.00052511878312 -0.00045884997235 -0.00034530326957 -0.00027890794445 -0.00048652745318 0
          -0.00046125333756 -0.0005803910899 -6.9081572292e-005 -0.00040483343764 -0.00051949074259 -0.00045405465062
          -0.00014011314488 -0.00034478475573 -0.00048935052473 -0.00051013240591 -0.0002104164887 -0.00049661938101
          -0.00027932296507 -0.00046055720304 0 -0.0004084687389 -0.00039732729783 -0.00049703201512
          -0.00049634155584 -6.9426918344e-005 -0.00050092331367 -0.00014044325508 -0.00051108776825 -0.00034681562101
          -0.00048190873349 -0.00021168627427 -0.00047075760085 -0.00051343929954 -0.0002826442942 -0.00049453432439
          -0.00053478498012 -0.00041341420729 -0.00030528561911 0 -0.00039505891618 -6.9081572292e-005
          -0.00046970517724 -0.00052521628095 -0.00014011314488 -0.00035354707506 -0.00053313269746 -0.0002104164887
          -0.00056508131092 -0.00044084066758 -0.00048027405865 -0.00042533097439 -0.00056901632342 -0.00027932296507
          -0.00048194697592 0 -0.00018236078904 -6.8533081503e-005 -0.00059781322489 -0.00027287486591
          -0.00054928963073 -0.00053307012422 -0.00034681562101 -0.0001402409689 -0.00042965624016 -0.00061767257284
          -0.00049978884635 -0.00021064691828 -0.00038691706141 -0.0006017581909 -0.00041341420729 -0.00027890794445
          -0.00046032262617 -0.00062319345307 -0.00066778040491 -0.0005797414924 0 -2.261474765e-005
          -0.00034478475573 -0.00053611933254 -0.00067394197686 -7.0001224231e-005 -0.0001242650178 -0.00048027405865
          -0.00038472772576 -0.00014320855553 -0.00021408093744 -0.00032000729698 -0.0004084687389 -0.00063533976208
          -0.00066925626015 -0.00070564460475 -0.00074679846875 -0.00043122368515 -0.00054928963073 -0.0002816405904
          -0.00073712924495 -0.00047075760085 -0.00053610937903 -0.00034530326957 0 0.00018272678426
          5.758244879e-005 -6.5206040745e-005 -0.00077391782543 -0.0001409289689 -0.00034038527519 -0.00062319345307
          -0.00080131716095 -0.0002148282656 -0.00040483343764 -0.00024046748877 -0.00067246274557 -0.00053313269746
          -0.00083943433128 -0.00028442440089 -0.00039694312727 -0.00081098719966 -0.00046055720304 -0.00070564460475
          -0.00053545436822 -0.00034800870344 -0.00090118165826 -0.00059781322489 0 0.00044493825408
          -0.0009159850888 0.00028005594504 -9.0640693088e-005 -0.00030558154685 -0.0001703712478 -0.00040459353477
          -0.00071643019328 -0.00051343929954 -0.00095106533263 -0.00024333543843 -0.00015020433057 -0.0003100366157
          -0.00036160650779 -0.00080131716095 -0.00066778040491 -0.0010608433513 -0.00089982978534 -0.00045405465062
          -0.00056508131092 -0.00053802574985 -0.00036897970131 -0.001056586043 0 0.00077727297321
          -2.8677864975e-005 0.00054994417587 -0.00011374822498 -0.00049703201512 -0.001087853685 -0.00029564788565
          -0.0007716367254 -0.00041878942284 -0.00074679846875 -0.00020573173242 -5.4463485867e-005 -0.0009159850888
          -0.00061767257284 -0.0012656612089 -0.00033303856617 -0.00029193333467 -0.0010086738039 -0.00045884997235
          -0.00053478498012 -0.0012312202016 -0.00055062735919 -0.00036526587792 -0.00083943433128 -0.0012566632358
          0.0011938826647 -0.00048935052473 0 -0.001056586043 -0.00067394197686 -0.00020266455249
          0.00087126845028 -0.00042229681276 -0.00084456038894 -0.00030359032098 -0.00033666621312 -0.00056901632342
          -0.0015321787214 3.5188881157e-005 -0.00037681416143 -0.0004623606801 -0.0004365942732 -0.00032593513606
          -0.0011436133645 -0.00051108776825 -0.0014490130125 -0.00073712924495 -0.00095106533263 -0.00048205652274
          -0.00058571458794 -0.0006017581909 -0.0012312202016 -0.001464930363 -0.00048652745318 0.0017075112555
          0 -0.00051193509717 0.00124124391 -0.00094576610718 -0.00052521628095 0.00012252180022
          -0.0018818024546 5.0140792155e-005 -0.00047220429406 9.5893017715e-005 -9.2257454526e-005 -0.00049661938101
          -0.0017197392881 -0.00081098719966 -0.0013127948623 -0.00052605330711 -0.001087853685 -0.00023953933851
          -0.00063533976208 -0.00036729456042 -0.0014490130125 -0.00053307012422 -0.00066640990553 -0.00036147824721
          -0.0017206239281 -0.00052511878312 -0.00049453432439 -0.0023422085214 -0.00044776537106 -0.0010939672356
          0 0.0023247802164 -0.00017747448874 0.0016428608214 -0.00089982978534 -0.00077379553113
          -0.00038674790994 -0.00067246274557 -0.00053611933254 -0.0012566632358 -0.00051013240591 -0.00055600551423
          8.5171202954e-005 -0.0020531073678 -0.00049905542983 -0.0015288590221 -0.0017197392881 -0.0006652555312
          -0.00048194697592 -0.00050578266382 -0.00083577394253 -0.00071784318425 -0.0020327826496 -0.0005207961658
          -0.00048190873349 -0.0029491535388 -0.00071643019328 -0.0010086738039 -0.00053610937903 -0.0013242424466
          -0.00072479364462 -0.001464930363 0.0030369602609 -0.00046032262617 0 0.00026369109401
          0.0020314785652 0.00016687191965 -0.0013573560864 -0.00051949074259 -0.0024576974101 -3.6215471482e-005
          -7.309539069e-005 -0.00069844926475 -0.0020531073678 -0.0018148011295 -0.00044084066758 -0.0002270269033
          -0.00082799623488 -0.0007716367254 -0.00053545436822 -0.00050092331367 -0.0037487230729 -0.00064841139829
          -0.0011739522452 -0.0024140020832 -0.00043122368515 -0.0011436133645 -0.0003705037816 -0.0017206239281
          -0.00038691706141 -0.00045908460743 -0.0017045290442 0.0038025041576 0.0023109549657 -0.00058039103169
          -0.0029399793129 -0.0024090691004 -0.00046970517724 -0.0024576974101 -0.0022174415644 -0.00049810908968
          -0.00053802574985 -0.00051250401884 -0.00084456038894 -0.00039694312727 -0.0014869155129 -0.0013127948623
          -0.00032000729698 -0.004799828399 -0.00049634155584 -0.00049631862203 -0.0028883195482 -0.0018298493233
          -0.00042965624016 -0.0020327826496 -0.0023683349136 -0.0035051552113 -0.00046125333756 -0.00055062735919
          -0.00036160650779 -0.0029399793129 -0.00039505891618 0.0045148893259 0.0022917999886 -0.00024046747421
          -0.00094576610718 -0.004226478748 -0.0028372050729 -0.0015288590221 -0.0014650606317 -0.00038472772576
          -0.0027520172298 -0.0061761587858 -0.00039732729783 -0.00027287486591 -0.0035125806462 -0.0024140020832
          -0.0030794390477 -0.00033303856617 -0.00015020431601 -0.00058571458794 -0.0035786470398 -0.0010939672356
          -0.00034038527519 -0.0035051552113 -0.00030528561911 -0.0041652270593 0.004944964312 -0.0001242650178
          -0.0018148011295 0.0016192296753 -0.007284110412 -0.0038916310295 -0.0033320421353 -0.0079655367881
          -0.00018236078904 -0.0028883195482 -0.0050979042426 -0.00032593513606 -5.4463482229e-005 -0.0044292365201
          -0.00030558154685 -0.00066640990553 -0.0054324320517 -0.0013242424466 5.7582452428e-005 -0.0041652270593
          -0.0058505726047 -0.0049690408632 -2.2614744012e-005 -0.0022174415644 0.0046406644396 -0.00034729368053
          -0.0058462629095 3.5188884794e-005 -0.01233845856 -0.00036729456042 -0.00029564788565 -0.010263475589
          -0.0068070003763 -0.0035125806462 -0.00083577394253 0.00028005594504 -0.0093608591706 -0.0059885247611
          -0.0017045290442 0.00018272679881 -0.0098253935575 -0.0049690408632 -0.0028372050729 -0.0060915257782
          -0.010181793012 -0.00033666621312 9.5893017715e-005 -0.00050578266382 0.00054994417587 -0.0096750855446
          0.0027590314858 0.00044493825408 -0.0011739522452 -0.0047283987515 -0.0044292365201 -0.013163315132
          -0.020594963804 -0.013087715022 -0.0023683349136 -0.0090157650411 -0.017012605444 -0.00047220429406
          -0.0060915257782 -0.017965648323 8.5171202954e-005 0.00087126845028 -0.0038916310295 -0.00082799623488
          0.00077727297321 -0.008069341071 -0.018474277109 -0.0018298493233 -0.0059885247611 -0.017357947305
          -0.0022013613489 -0.016786627471 -0.013422249816 -0.0035786470398 -0.033968433738 -0.024233182892
          -0.00077379553113 0.00124124391 -0.015362470411 -7.3095383414e-005 0.0011938826647 -0.030627509579
          -0.0014869155129 -0.008069341071 -0.0058462629095 -0.032926484942 -0.012368491851 -0.0030794390477
          -0.034275624901 -0.0090157650411 0.0016428608214 -0.0013573560864 0.0017075112555 -0.03277567029
          -0.021558050066 -0.0058505726047 -0.012797525153 -0.00051250401884 -0.029525814578 -0.055472400039
          -0.043736808002 -0.028953973204 -0.0027520172298 -0.054640527815 -0.0096750855446 -0.012368491851
          -0.060119882226 -0.0054324320517 -0.022611621767 0.0020314785652 0.0023247802164 -0.0024090691004
          -0.063983902335 -0.015362470411 -0.010181793012 -0.0014650606317 -0.029327869415 -0.063149668276
          -0.033170998096 -0.057861365378 -0.0050979042426 -0.089754164219 -0.057510115206 -0.077363803983
          -0.017357947305 -0.022611621767 -0.096451230347 0.0030369602609 -0.0098253935575 0.0023109549657
          -0.004226478748 -0.10868838429 -0.046793032438 -0.0033320421353 -0.028953973204 -0.1184688434
          -0.018474277109 -0.046367455274 -0.0093608591706 -0.1208049953 0.0038025041576 -0.069629073143
          -0.1054918319 -0.03277567029 -0.14371070266 0.0022917999886 -0.11453121156 -0.017965648323
          -0.046793032438 -0.13415017724 -0.007284110412 -0.16766104102 -0.0068070003763 -0.099933251739
          -0.19287122786 -0.034275624901 -0.057510115206 -0.21420508623 -0.017012605444 -0.088174551725
          0.0045148893259 0.0016192296753 -0.22370323539 -0.063149668276 -0.13103483617 -0.01233845856
          -0.032926484942 -0.18193362653 -0.22691611946 -0.099933251739 -0.21924941242 -0.22703456879
          -0.013087715022 -0.28446006775 -0.2038025111 -0.063983902335 -0.33157542348 -0.11453121156
          0.004944964312 -0.030627509579 -0.37106335163 -0.00034729368053 -0.18113674223 -0.39087098837
          -0.020594963804 -0.1208049953 -0.060119882226 -0.22854278982 -0.2038025111 -0.29857584834
          -0.38983616233 -0.35125654936 -0.024233182892 -0.37186044455 0.0046406644396 -0.46492189169
          -0.1184688434 -0.37771564722 -0.054640527815 -0.21924941242 -0.54263305664 -0.0047283987515
          -0.60255116224 -0.3516331017 -0.033968433738 -0.10868838429 -0.62936538458 -0.22370323539
          -0.043736808002 -0.37771564722 -0.37412306666 -0.62853890657 -0.46681275964 0.0027590314858
          -0.52894574404 -0.58306795359 -0.21420508623 -0.013422249816 -0.72072941065 -0.096451230347
          -0.6213862896 -0.38983616233 -0.82958936691 -0.055472400039 -0.89978128672 -0.60395765305
          -0.19287122786 -0.39087098837 -0.92013788223 -0.077363803983 -0.0022013613489 -0.6213862896
          -0.91198116541 -0.5777220726 -0.029525814578 -0.69496786594 -0.76865053177 -0.37106335163
          -0.16766104102 -0.86599695683 -0.62853890657 -0.90832066536 -1.0451849699 -0.089754164219
          -1.1686372757 -0.91053283215 -0.33157542348 -1.225332737 -0.012797525153 -0.62936538458
          -0.13415017724 -1.2239652872 -0.057861365378 -0.90832066536 -1.2058573961 -0.28446006775
          -0.84403598309 -0.98533833027 -0.60255116224 -1.0713647604 -0.14371070266 -1.2105009556
          -0.91198116541 -1.2044466734 -1.4088243246 -1.5152807236 -0.033170998096 -0.54263305664
          -1.2292451859 -0.22703456879 -1.5367468596 -0.92013788223 -0.1054918319 -1.5137764215
          -1.2044466734 -0.46492189169 -0.89978128672 -1.4930536747 -0.22691611946 -1.1710517406
          -1.3336918354 -1.4298090935 -1.2058573961 -1.5947822332 -1.4898890257 -1.7768654823
          -0.069629073143 -0.82958936691 -0.37186044455 -1.8397212029 -1.5255258083 -1.2239652872
          -0.18193362653 -1.8269447088 -1.7994154692 -1.4898890257 -0.72072941065 -0.35125654936
          -1.225332737 -1.7803370953 -1.552000761 -1.7324614525 -1.8340476751 -0.13103483617
          -1.4930536747 -2.0031249523 -1.7606365681 -2.1431312561 -0.58306795359 -1.1686372757
          -2.1625401974 -0.29857584834 -1.5137764215 -1.7818057537 -2.1375589371 -2.1183362007
          -1.0451849699 -1.7606365681 -0.52894574404 -1.5367468596 -2.0894441605 -0.22854278982
          -1.9792467356 -1.7803370953 -2.1751616001 -2.2797341347 -2.0322544575 -2.4443840981
          -0.86599695683 -1.5152807236 -2.5460870266 -0.46681275964 -2.5481164455 -1.7994154692
          -2.0103268623 -2.5317285061 -1.4088243246 -0.76865053177 -2.0322544575 -2.5167887211
          -1.8269447088 -0.37412306666 -2.4603493214 -2.0894441605 -2.445202589 -1.2105009556
          -2.6562247276 -2.7686517239 -2.3553102016 -1.8397212029 -0.69496786594 -2.9460029602
          -3.0373466015 -2.1183362007 -2.272582531 -3.0525119305 -3.0512728691 -1.0713647604
          -1.7768654823 -0.5777220726 -2.3553102016 -2.1375589371 -3.0300335884 -2.9418742657
          -2.4603493214 -1.5947822332 -0.98533833027 -2.1625401974 -2.9360976219 -3.1622421741
          -2.8030366898 -3.2933712006 -3.514118433 -3.6189491749 -2.5167887211 -2.6696317196
          -3.6613819599 -1.4298090935 -2.1431312561 -0.84403598309 -3.6711304188 -2.8030366898
          -2.5317285061 -3.6435370445 -3.5435414314 -2.0031249523 -1.3336918354 -2.9418742657
          -2.5481164455 -3.4210753441 -3.6588232517 -3.4021980762 -3.813336134 -4.0900316238
          -3.0300335884 -4.2039780617 -1.8340476751 -3.2516245842 -1.1710517406 -4.2650675774
          -2.5460870266 -4.2827801704 -3.0512728691 -3.4021980762 -4.2664933205 -1.7324614525
          -2.4443840981 -4.1813812256 -3.5435414314 -3.0525119305 -4.0473480225 -3.8471968174
          -4.0864362717 -4.2481899261 -4.5540013313 -3.6435370445 -2.2797341347 -1.552000761
          -4.6493821144 -3.0373466015 -3.9042575359 -4.7138490677 -4.7490081787 -3.6711304188
          -4.0473480225 -4.7630114555 -2.1751616001 -2.9460029602 -4.1813812256 -4.694457531
          -3.6613819599 -4.5391850471 -4.1510887146 -4.3775644302 -2.7686517239 -4.5113005638
          -4.2664933205 -1.9792467356 -4.7942976952 -3.6189491749 -4.8542027473 -4.4188375473
          -4.92710495 -4.2827801704 -4.9961543083 -4.5391850471 -2.6562247276 -3.514118433
          -5.0410447121 -4.2650675774 -4.694457531 -4.9725599289 -2.445202589 -4.7862358093
          -3.2933712006 -4.2849206924 -4.7630114555 -4.4902844429 -4.570763588 -4.2039780617
          -4.7954220772 -4.7264881134 -4.8434453011 -4.9548931122 -4.7490081787 -3.1622421741
          -5.0675954819 -4.7862358093 -4.0900316238 -5.1319060326 -4.7138490677 -4.9725599289
          -5.0640535355 -2.9360976219 -3.813336134 -4.9092512131 -5.0410447121 -4.2379989624
          -4.6493821144 -4.4331960678 -4.4871468544 -4.6703915596 -4.9325556755 -4.7609815598
          -4.9961543083 -4.9454979897 -3.6588232517 -4.9092512131 -4.5540013313 -5.1052856445
          -5.1583600044 -4.92710495 -5.0640535355 -3.4210753441 -5.1050276756 -4.2481899261
          -5.0475306511 -5.1319060326 -4.8542027473 -4.0335788727 -4.2576351166 -4.3872790337
          -4.6104984283 -5.0790743828 -4.7873315811 -4.0864362717 -5.0675954819 -5.0647959709
          -4.7942976952 -5.0475306511 -5.2475938797 -4.9548931122 -5.2119479179 -5.1050276756
          -3.8471968174 -4.5113005638 -5.1731925011 -5.1583600044 -4.8434453011 -5.1897640228
          -3.6961636543 -4.0152659416 -4.3931407928 -5.1533789635 -4.7969064713 -4.3775644302
          -5.0443644524 -5.1052856445 -4.7954220772 -5.3626642227 -5.1897640228 -5.4868469238
          -4.9454979897 -4.1510887146 -5.332859993 -5.1731925011 -4.570763588 -5.3129448891
          -4.7609815598 -5.2119479179 -5.3308196068 -3.2017147541 -3.6838710308 -4.4902844429
          -4.5371103287 -5.2804536819 -5.345969677 -5.2475938797 -5.5569825172 -4.6703915596
          -5.6470632553 -5.3308196068 -5.7537822723 -4.2849206924 -5.0647959709 -5.5914821625
          -4.4871468544 -5.3129448891 -5.5440373421 -4.7873315811 -5.332859993 -5.5119886398
          -4.4331960678 -2.4438915253 -3.0950505733 -4.7492728233 -5.5125751495 -5.4868469238
          -6.4893498421 -4.6104984283 -6.4880318642 -5.9876441956 -5.5119886398 -4.2379989624
          -6.2596120834 -5.3626642227 -4.3872790337 -6.0066084862 -5.5440373421 -5.8099198341
          -5.0443644524 -5.5914821625 -5.7033991814 -4.2576351166 -1.2859687805 -2.1194989681
          -5.6741728783 -5.7537822723 -5.7719883919 -4.7969064713 -9.5636558533 -9.1819753647
          -5.7033991814 -4.0335788727 -6.147939682 -5.6470632553 -6.1381921768 -4.3931407928
          -5.8099198341 -6.2556018829 -6.0510611534 -5.5569825172 -6.0066084862 -4.0152659416
          -5.8492064476 -5.345969677 0.40918433666 -6.2596120834 -0.11471215636 -5.7594513893
          -5.4479117393 -11.179768562 -10.672398567 -3.6961636543 -5.8492064476 -7.009414196
          -5.9876441956 -4.5371103287 -6.2010455132 -6.0510611534 -6.2804822922 -6.4880318642
          -6.1098022461 -6.2556018829 -3.6838710308 -5.906235218 -6.4893498421 -6.1381921768
          -5.8379983902 -3.2017147541 -5.906235218 -6.147939682 -4.7492728233 -6.1098022461
          -9.1819753647 -3.0950505733 -6.2804822922 -9.5636558533 -6.2010455132 -2.4438915253
          -5.7719883919 -7.009414196 -10.672398567 -2.1194989681 -11.179768562 -1.2859687805
          -5.4479117393 -0.11471215636 0.40918433666
        </DataArray>
        <DataArray type="Float32" Name="VELOCITY" NumberOfComponents="3" ComponentName0="X-VELOCITY" ComponentName1="Y-VELOCITY" ComponentName2="Z-VELOCITY" format="ascii" RangeMin="0" RangeMax="8.0856962204">
          0 0 0 0 0 0
          5.2524542809 0.00018595297297 0 5.252093792 0.00022930344858 0
          5.248737812 0.00048227247316 0 0 0 0
          5.2516884804 0.00024071305234 0 5.2488422394 0.00037831583177 0
          5.2490286827 0.00032838378684 0 5.2502989769 0.00028214327176 0
          0 0 0 5.2512993813 0.00022067951795 0
          5.2503118515 0.00024891833891 0 5.2502689362 0.00022340528085 0
          5.2492341995 0.00027951112133 0 5.2497138977 0.00031214169576 0
          0 0 0 5.2509560585 0.00018894214008 0
          5.2497377396 0.00028030731482 0 5.2502012253 0.00020652158128 0
          5.2494120598 0.00023708587105 0 5.2497749329 0.00025418118457 0
          5.2501296997 0.00019424925267 0 5.2498412132 0.00026369930129 0
          0 0 0 5.2498164177 0.00023264957417 0
          5.2498831749 0.000232681341 0 5.2506690025 0.00015396173694 0
          5.2495436668 0.00020178400155 0 5.2499108315 0.0002125579631 0
          5.24985075 0.0002193688124 0 5.2500596046 0.00018770157476 0
          5.2499279976 0.00020146653696 0 0 0 0
          5.2497725487 0.00022278087272 0 5.2498149872 0.00020197502454 0
          5.250436306 0.00012200323545 0 5.2498517036 0.0001875769085 0
          5.2496242523 0.00017531201593 0 5.2499389648 0.00019975237956 0
          5.249871254 0.00021690985886 0 5.2499895096 0.00018969195662 0
          5.2498855591 0.00018039821589 0 0 0 0
          5.2497596741 0.00017378802295 0 5.2499437332 0.00020949589089 0
          5.2502493858 9.5729374152e-005 0 5.2498106956 0.00015773817722 0
          5.2499165535 0.00018205157539 0 5.249874115 0.00022879528115 0
          5.2496552467 0.00015907170018 0 5.2498545647 0.00014762146748 0
          5.2499127388 0.00020428696007 0 5.249894619 0.00014401899534 0
          5.2499437332 0.00019539495406 0 5.2499432564 0.00023457271163 0
          5.2497434616 0.00011864997941 0 0 0 0
          5.2499322891 0.00014836863556 0 5.2500963211 7.5915253547e-005 0
          5.2497982979 0.00010926753021 0 5.2498569489 0.00025990666472 0
          5.2496371269 0.00015460183204 0 5.2498474121 0.00010336362902 0
          5.2499685287 0.00022451193945 0 5.2498936653 0.00010199376993 0
          5.2498197556 0.00023672303359 0 5.249935627 0.00028087254032 0
          5.2499699593 0.00016301759752 0 5.2499394417 0.00010636688239 0
          5.249815464 0.00031714953366 0 5.2497301102 6.0096528614e-005 0
          0 0 0 5.2499661446 6.2382547185e-005 0
          5.2497882843 5.5861626606e-005 0 5.2500095367 0.000191532381 0
          5.2495679855 0.00016399034939 0 5.2499909401 0.00027540055453 0
          5.2498416901 5.3359242884e-005 0 5.2499876022 0.00011835390615 0
          5.2499184608 0.00035695231054 0 5.2496976852 0.00029398972401 0
          5.2498936653 5.3153184126e-005 0 5.2497444153 0.00041051802691 0
          5.2499461174 5.5926197092e-005 0 5.2500548363 0.00023929540475 0
          5.2497286797 -1.100027289e-015 0 5.2500419617 0.00014073064085 0
          0 0 0 5.2500128746 0.00035680204746 0
          5.2498459816 5.4690626712e-005 0 5.2497859001 -1.0263987383e-015 0
          5.2494387627 0.00019044507644 0 5.2498402596 -3.6943450521e-016 0
          5.2498884201 0.00047515603364 0 5.2500023842 6.2739105488e-005 0
          5.2495293617 0.0003858654527 0 5.2498941422 3.9797821851e-016 0
          5.2501072884 0.00017756750458 0 5.2501096725 0.00031416947604 0
          5.2499499321 1.0719493115e-015 0 5.2496328354 0.00055453908863 0
          5.2500357628 0.00048139994033 0 5.2500677109 7.5090909377e-005 0
          0 0 0 5.2497301102 -6.0096528614e-005 0
          5.2497234344 5.2614039305e-005 0 5.2497882843 -5.5861626606e-005 0
          5.249232769 0.00023902006797 0 5.2498402596 0.00065328879282 0
          5.2498416901 -5.3359242884e-005 0 5.2500119209 6.7377532251e-016 0
          5.250190258 0.00023480333039 0 5.2498936653 -5.3153184126e-005 0
          5.2501807213 0.00042758529889 0 5.2492918968 0.0005264263018 0
          5.2501478195 9.5184455859e-005 0 5.2500844002 -1.6489102703e-017 0
          5.2500619888 0.00066758639878 0 5.2499461174 -5.5926197092e-005 0
          5.2494668961 0.00077036896255 0 5.2497434616 -0.00011864997941 0
          0 0 0 5.2497982979 -0.00010926753021 0
          5.2503008842 0.00032106688013 0 5.2495851517 5.6432974816e-005 0
          5.25025177 0.00012622500071 0 5.2497673035 0.00091711466666 0
          5.2500023842 -6.2739105488e-005 0 5.2498474121 -0.00010336362902 0
          5.248922348 0.00031753335497 0 5.2502756119 0.00059611373581 0
          5.2501749992 -1.0058693067e-015 0 5.2498936653 -0.00010199376993 0
          5.2489523888 0.00073614652501 0 5.2500944138 0.0009420242277 0
          5.2500677109 -7.5090909377e-005 0 5.2499394417 -0.00010636688239 0
          5.2492222786 0.001088792691 0 5.250392437 0.00017286383081 0
          5.2504534721 0.00044887163676 0 5.2502937317 -1.2609964774e-015 0
          5.2497596741 -0.00017378802295 0 0 0 0
          5.2499876022 -0.00011835390615 0 5.2496585846 0.0013039502082 0
          5.2504072189 0.00084376439918 0 5.2498106956 -0.00015773817722 0
          5.2494139671 6.7165652581e-005 0 5.2501478195 -9.5184455859e-005 0
          5.248465538 0.00043783040019 0 5.2498545647 -0.00014762146748 0
          5.249894619 -0.00014401899534 0 5.2484645844 0.0010448559187 0
          5.2500419617 -0.00014073064085 0 5.2501368523 0.001343345386 0
          5.2504544258 -2.4209321834e-015 0 5.2505869865 0.00024184070935 0
          5.2506670952 0.00063635216793 0 5.2488665581 0.0015545192873 0
          5.25025177 -0.00012622500071 0 5.2499322891 -0.00014836863556 0
          5.2505931854 0.0012053136015 0 5.2501072884 -0.00017756750458 0
          5.2494988441 0.0018678240012 0 5.2499699593 -0.00016301759752 0
          5.2497725487 -0.00022278087272 0 0 0 0
          5.2491879463 8.683163469e-005 0 5.2498149872 -0.00020197502454 0
          5.2506780624 -2.8796858629e-015 0 5.2498517036 -0.0001875769085 0
          5.2477998734 0.00061758235097 0 5.250392437 -0.00017286383081 0
          5.2508616447 0.00034291693009 0 5.2498855591 -0.00018039821589 0
          5.2500095367 -0.000191532381 0 5.2477622032 0.0014959425898 0
          5.2501945496 0.0019274790538 0 5.250190258 -0.00023480333039 0
          5.2509713173 0.00090977962827 0 5.2499165535 -0.00018205157539 0
          5.2483506203 0.0022323299199 0 5.2508583069 0.0017311116681 0
          5.2500548363 -0.00023929540475 0 5.2505869865 -0.00024184070935 0
          5.2492661476 0.0026868665591 0 5.2499437332 -0.00019539495406 0
          5.2509942055 -3.6242875393e-015 0 5.2503008842 -0.00032106688013 0
          5.2498412132 -0.00026369930129 0 0 0 0
          5.2512526512 0.00049022765597 0 5.248875618 0.00011883296975 0
          5.2498831749 -0.000232681341 0 5.2468338013 0.00088288920233 0
          5.2499108315 -0.0002125579631 0 5.2499685287 -0.00022451193945 0
          5.2502756119 0.0027753130998 0 5.2501096725 -0.00031416947604 0
          5.2514071465 0.0013072039001 0 5.2499279976 -0.00020146653696 0
          5.2467484474 0.0021523542237 0 5.2499389648 -0.00019975237956 0
          5.2476038933 0.0032158598769 0 5.2508616447 -0.00034291693009 0
          5.2504534721 -0.00044887163676 0 5.2514443398 -3.4501538708e-015 0
          5.2512383461 0.0024940208532 0 5.2499909401 -0.00027540055453 0
          5.2501807213 -0.00042758529889 0 5.2489275932 0.0038738674484 0
          5.2499437332 -0.00020949589089 0 5.2518138885 0.00070424284786 0
          5.2497138977 -0.00031214169576 0 0 0 0
          5.2497377396 -0.00028030731482 0 5.2484331131 0.00016854563728 0
          5.2497749329 -0.00025418118457 0 5.2500128746 -0.00035680204746 0
          5.2520346642 0.0018837315729 0 5.2454357147 0.0012720699888 0
          5.2503905296 0.0040036831051 0 5.2499432564 -0.00023457271163 0
          5.2506670952 -0.00063635216793 0 5.2498164177 -0.00023264957417 0
          5.2452859879 0.0031051672995 0 5.2512526512 -0.00049022765597 0
          5.2502756119 -0.00059611373581 0 5.2520899773 -1.9220268128e-015 0
          5.246524334 0.0046400860883 0 5.24985075 -0.0002193688124 0
          5.2517852783 0.0035994204227 0 5.249935627 -0.00028087254032 0
          5.2500357628 -0.00048139994033 0 5.2526221275 0.0010146159912 0
          5.2484374046 0.0055912937969 0 5.249871254 -0.00021690985886 0
          5.2509713173 -0.00090977962827 0 5.2529392242 0.0027191836853 0
          0 0 0 5.2499184608 -0.00035695231054 0
          5.2502989769 -0.00028214327176 0 5.2518138885 -0.00070424284786 0
          5.2504072189 -0.00084376439918 0 5.2503118515 -0.00024891833891 0
          5.2477960587 0.00024424260482 0 5.249874115 -0.00022879528115 0
          5.2505540848 0.0057810861617 0 5.2502689362 -0.00022340528085 0
          5.2434139252 0.0018411827041 0 5.2500619888 -0.00066758639878 0
          5.2530193329 -1.7902998487e-015 0 5.2431769371 0.0044857775792 0
          5.2502012253 -0.00020652158128 0 5.2498569489 -0.00025990666472 0
          5.2501296997 -0.00019424925267 0 5.2449660301 0.0066989618354 0
          5.2525734901 0.0051996242255 0 5.2498884201 -0.00047515603364 0
          5.2537875175 0.001464337809 0 5.2505931854 -0.0012053136015 0
          5.2514071465 -0.0013072039001 0 5.2500596046 -0.00018770157476 0
          5.2477278709 0.0080725094303 0 5.2500944138 -0.0009420242277 0
          5.2526221275 -0.0010146159912 0 5.2542452812 0.0039292345755 0
          5.249815464 -0.00031714953366 0 0 0 0
          5.248737812 -0.00048227247316 0 5.2499895096 -0.00018969195662 0
          5.2468709946 0.0003585270606 0 5.2507867813 0.0083500398323 0
          5.2498402596 -0.00065328879282 0 5.2488422394 -0.00037831583177 0
          5.2543592453 -2.514894607e-015 0 5.2490286827 -0.00032838378684 0
          5.2404932976 0.0026720459573 0 5.2401385307 0.00648310408 0
          5.2492341995 -0.00027951112133 0 5.2497444153 -0.00041051802691 0
          5.2554717064 0.0021158307791 0 5.2508583069 -0.0017311116681 0
          5.2537093163 0.0075146225281 0 5.2499127388 -0.00020428696007 0
          5.2520346642 -0.0018837315729 0 5.2494120598 -0.00023708587105 0
          5.2501368523 -0.001343345386 0 5.2427201271 0.009670057334 0
          5.2537875175 -0.001464337809 0 5.2497673035 -0.00091711466666 0
          5.2467012405 0.011651466601 0 5.2495436668 -0.00020178400155 0
          5.2561321259 0.0056816642173 0 5.2498197556 -0.00023672303359 0
          5.2496328354 -0.00055453908863 0 5.2562937737 -1.3878034506e-015 0
          5.2496242523 -0.00017531201593 0 5.2511167526 0.012058670633 0
          5.2524542809 -0.00018595297297 0 0 0 0
          5.252093792 -0.00022930344858 0 5.2455191612 0.00053055066383 0
          5.2512383461 -0.0024940208532 0 5.2362780571 0.0038838440087 0