<?xml version="1.0"?>
<VTKFile type="PolyData" version="0.1" byte_order="LittleEndian" compressor="vtkZLibDataCompressor">
  <PolyData>
    <Piece NumberOfPoints="1071" NumberOfVerts="0" NumberOfLines="0" NumberOfStrips="0" NumberOfPolys="2000">
      <PointData>
        <DataArray type="Float32" Name="PRESSURE" format="ascii" RangeMin="-8.5878143311" RangeMax="7.5795054436">
          0 0.00083541474305 0 -0.0011853765463 0 -0.00010737425328
          -0.0023183503654 0.00015345792053 -0.00052518793382 0 -0.0012678253697 -0.002985662315
          -0.00078791665146 -0.001253516064 -0.0013056684984 0 -0.0020780931227 -0.0032401122153
          -0.00028920394834 -0.0015905305045 -0.0018823808059 -0.00073590077227 -0.0018700336805 0
          -0.0024900517892 -0.0011625785846 -0.0003793220385 -0.0032171984203 -0.0022340496071 -0.00072837999323
          -0.0014992567012 -0.0020697901491 -0.0010517014889 -0.0026285091881 0 -0.00031323521398
          -0.0030794250779 -0.00062831840478 -0.0023976061493 -0.0013326408807 -0.0017502548872 -0.0021952232346
          -0.00092999998014 -0.0026239540894 0 -0.001563523896 -0.0029102596454 -0.00029858329799
          -0.0011960697593 -0.0019246119773 -0.0024451038335 -0.00058418221306 -0.0022607690189 -0.00085780519294
          -0.0014215767151 -0.0017431398155 0 -0.0025617873762 -0.0011062577832 -0.0027533166576
          -0.00028099532938 -0.0020383279771 -0.0024334376212 -0.00055088289082 -0.0016058583278 -0.00080939126201
          -0.0022853289265 -0.0018765628338 -0.0013238972751 -0.0010472851573 -0.0021080260631 0
          -0.0024857844692 -0.0026218649 -0.00027194176801 -0.0015086998465 -0.0023974257056 -0.0017518586246
          -0.00053491262952 -0.0012595785083 -0.0019720760174 -0.0022854222916 -0.00078479759395 -0.0021478596609
          -0.0010161156533 -0.0016615835484 0 -0.0014440350933 -0.0024136565626 -0.0018647029065
          -0.0025158971548 -0.00026390099083 -0.0023547275923 -0.00052296230569 -0.002038592007 -0.0012247440172
          -0.0022725341842 -0.00076991139213 -0.0016007268569 -0.0017854775069 -0.00099919224158 -0.0021683664527
          -0.0019504526863 -0.0014084238792 -0.0023499182425 0 -0.002430743305 -0.00027194176801
          -0.0023126841988 -0.002083971398 -0.00053491262952 -0.0012069121003 -0.0017314496217 -0.00078479759395
          -0.001884499914 -0.0022534250747 -0.0015667888802 -0.0013908772962 -0.0020150453784 -0.0010161156533
          -0.0021766771097 0 -0.0022935175803 -0.00028099532938 -0.0018391917692 -0.0023608522024
          -0.0017010433367 -0.0021144158673 -0.0012247440172 -0.00055088289082 -0.0022733197547 -0.0019631865434
          -0.0015505959745 -0.00080939126201 -0.0022314214148 -0.0020637267735 -0.0014084238792 -0.0010472851573
          -0.0021772398613 -0.0018135762075 -0.0019275977975 -0.0016870532418 0 -0.0022413798142
          -0.0012595785083 -0.002134488197 -0.0020259870216 -0.00029858329799 -0.0023010149598 -0.0015667888802
          -0.0022361753508 -0.00058418221306 -0.00085780519294 -0.0022076575551 -0.0014440350933 -0.0021008695476
          -0.0018024145393 -0.0019075470045 -0.0020005663391 -0.0021725946572 -0.0017010433367 -0.0011062577832
          -0.002077016281 -0.0016007268569 -0.00214740308 -0.0013238972751 0 -0.0021896990947
          -0.0022465004586 -0.00031323521398 -0.0018996787257 -0.00062831840478 -0.002199661918 -0.0018135762075
          -0.0019865441136 -0.00092999998014 -0.0015086998465 -0.0021819304675 -0.0021300280932 -0.0017314496217
          -0.002062007552 -0.0011960697593 -0.002163995523 -0.0021199984476 -0.0016615835484 -0.0019075470045
          -0.0021553756669 -0.0014215767151 -0.0019823762123 -0.0018391917692 0 -0.0021341906395
          -0.0020543606952 -0.0021928118076 -0.0003793220385 -0.0021616013255 -0.00072837999323 -0.0016058583278
          -0.0021541113965 -0.0017854775069 -0.0021157502197 -0.0010517014889 -0.0021531819366 -0.0013326408807
          -0.0021518401336 -0.0019865441136 -0.0019275977975 -0.0020543618593 -0.0021583398338 -0.0017518586246
          -0.001884499914 -0.0021599314641 -0.001563523896 -0.0021148924716 0 -0.002069914015
          -0.00028920394834 -0.0021353377961 -0.00073590077227 -0.0018647029065 -0.0021655694582 -0.0021193714347
          -0.00217559468 -0.0017431398155 -0.0020005663391 -0.0011625785846 -0.0021197171882 -0.0020543606952
          -0.0019631865434 -0.0021197248716 -0.002135935938 -0.0014992567012 -0.0021952791139 -0.0018765628338
          -0.0019504526863 -0.0021721504163 -0.0021621535998 -0.0017502548872 -0.002062007552 -0.0022153055761
          -0.0019909075927 -0.0019720760174 0 -0.0021148924716 -0.0020259870216 -0.00078791665146
          -0.0020689785015 -0.0019246118609 -0.0021967380308 -0.001253516064 -0.0020698767621 -0.0020150453784
          -0.0021828149911 -0.0020792614669 -0.0015905305045 -0.0020383279771 -0.0018700336805 -0.0021156563889
          -0.002234082669 -0.002038592007 -0.0022303704172 -0.002077016281 -0.0021157502197 -0.0020697901491
          -0.0021628784016 -0.0020637267735 -0.0021721504163 -0.0022690540645 -0.0021080260631 -0.0018897093832
          0 -0.0021952232346 -0.001987750642 -0.0022198015358 -0.002083971398 0.00015345792053
          -0.0022483770736 -0.00052518793382 -0.0020094430074 -0.0020289283711 -0.0013056684984 -0.0021478596609
          -0.0022942079231 -0.0021199984476 -0.0022782774176 -0.0022607690189 -0.0021655694582 -0.0018823808059
          -0.0021008695476 -0.0020900364034 -0.0022303704172 -0.0021144158673 -0.0021628621034 -0.0022340496071
          -0.0023314182181 -0.0022853289265 -0.0021683664527 -0.002321790671 -0.0023976061493 -0.0022472699638
          0 -0.001756768208 -0.0011853765463 -0.0018843703438 -0.0021583398338 -0.0019336978439
          -0.0023183503654 -0.0021300280932 -0.002134488197 -0.0022153055761 -0.0022854222916 -0.002985662315
          -0.0019651486073 -0.002369008027 -0.0024451038335 -0.0023319178727 -0.0022942079231 -0.0032401122153
          -0.0021766771097 -0.0020578519907 -0.0021629526746 -0.0032171984203 -0.0024078181013 -0.0024334376212
          -0.0022725341842 -0.0024094108958 -0.0021541113965 -0.0021952791139 -0.00214740308 -0.0022821009625
          -0.0030794250779 -0.0022690540645 -0.0015797317028 -0.0021772398613 0 0.00083541474305
          -0.0017498057568 -0.00010737425328 -0.0018374739448 -0.0023974257056 -0.0024611528497 -0.0012678253697
          -0.0018836037489 -0.0029102596454 -0.002369008027 -0.002399899764 -0.0022534250747 -0.0020780931227
          -0.0020177250262 -0.00217559468 -0.0021553756669 -0.0023547275923 -0.0025190210436 -0.0027533166576
          -0.0021642995998 -0.0025048691314 -0.0021725944243 -0.002234082669 -0.0024900517892 -0.0023314182181
          -0.0022314214148 -0.0026285091881 -0.0023280256428 -0.0013425931102 -0.0015728168655 -0.0026218649
          -0.0025784904137 -0.0017147980398 -0.0023126841988 -0.0024611528497 -0.0024883353617 -0.0026239540894
          -0.0021599314641 -0.0017792107537 -0.0021967380308 -0.002163995523 -0.0019683109131 -0.0022782774176
          -0.0022076575551 -0.0026604137383 -0.0025158971548 -0.0025617873762 -0.002630834002 -0.002168645151
          -0.0022733197547 -0.0024078181013 -0.0023899304215 -0.0027308557183 -0.0024857844692 -0.0021621535998
          -0.0021518401336 -0.0025784904137 -0.002430743305 -0.0010246934835 -0.0013395199785 -0.0021819304675
          -0.0022198015358 -0.0015590462135 -0.0026050107554 -0.0023319178727 -0.0016462405911 -0.0022361753508
          -0.0019086474786 -0.002846125979 -0.0024136565626 -0.0023608522024 -0.0027961672749 -0.0025048691314
          -0.002178771887 -0.002135935938 -0.0021531819366 -0.0021628784016 -0.0024743760005 -0.0022472699638
          -0.002199661918 -0.0027308557183 -0.0023499182425 -0.0029306926299 -0.00059960014187 -0.0023010149598
          -0.002399899764 -0.0010330696823 -0.0013634142233 -0.0027599560563 -0.001478690654 -0.0030923653394
          -0.0022935175803 -0.002630834002 -0.0018387895543 -0.0021156563889 -0.0021197171882 -0.0030141607858
          -0.0021616013255 -0.0021628621034 -0.0021992006805 -0.0022821009625 -0.0022465004586 -0.0029306926299
          -0.0025903205387 -0.0031937891617 -0.0022413798142 -0.0024883353617 -3.3938726119e-005 -0.00063363224035
          -0.0029661671724 -0.0020792614669 -0.0011219368316 -0.0020900364034 -0.0021193714347 -0.0034201680683
          -0.0012711273739 -0.0027961672749 -0.0021629526746 -0.0021928118076 -0.001760940766 -0.0033017122187
          -0.0023280256428 -0.0021896990947 -0.0022373218089 -0.0031937891617 -0.0026050107554 -0.003540127771
          -0.0027501818258 -0.0020698767621 -0.0020289283711 -0.0020578519907 -0.0021353377961 -0.003240553895
          0.00071364047471 -0.0021341906395 -0.002164299367 -0.00011896691285 -0.0030141607858 -0.0038568496238
          -0.00083144218661 -0.0010203552665 -0.0023899304215 -0.0036802343093 -0.0016814323608 -0.0020094430074
          -0.003540127771 -0.0023052541073 -0.0019651486073 -0.0020689785015 -0.0027599560563 -0.0020177247934
          -0.002069914015 -0.0039948537014 -0.0029714619741 -0.002168645151 -0.0033017122187 -0.0036052528303
          0.0016929988051 -0.0044378219172 0.00053382327314 -0.0024743760005 -0.00049505988136 -0.00072851323057
          -0.0019336978439 -0.001987750642 -0.0041767563671 -0.0018836037489 -0.0019909075927 -0.0016141558299
          -0.0019683109131 -0.0039948537014 -0.0029661671724 -0.0024229644332 -0.0045893546194 -0.002178771887
          -0.0032793632708 -0.0036802343093 -0.0018843703438 -0.0018374739448 -0.0018897093832 -0.0040895864367
          -0.0052088918164 -0.0025903205387 0.0029618465342 -0.0017792107537 0.0013444006909 -0.00012827725732
          -0.00040861286107 -0.0048253382556 -0.0019086474786 -0.001586510567 -0.003240553895 -0.0045893546194
          -0.0026236216072 -0.0021992006805 -0.0053624748252 -0.0017498057568 -0.001756768208 -0.0017147980398
          -0.0037112119608 -0.0041767563671 -0.0027501818258 -0.0016462405911 -0.006229232531 -0.0047332788818
          0.0045825936832 0.0023214942776 -0.0018387895543 0.00023086224974 -0.0056691220962 -9.422324365e-005
          -0.0036052528303 -0.0053624748252 -0.0016497441102 -0.0015797317028 -0.0022373218089 -0.0015728168655
          -0.0015590462135 -0.0029629981145 -0.0063619497232 -0.001478690654 -0.0048253382556 -0.0043243095279
          -0.0029714619741 -0.0075753699057 -0.001760940766 -0.0055922321044 -0.0013425931102 0.0066143800505
          0.0034485422075 -0.0040895864367 0.00050485308748 -0.0013395198621 -0.006763825193 -0.0023052541073
          -0.0063619497232 0.00014381408982 -0.0013634142233 -0.0018970557721 -0.0012711273739 -0.007646409329
          -0.0035363833886 -0.0032793632708 -0.0056691220962 -0.0052104447968 -0.0016814323608 -0.0093467952684
          -0.0010246934835 -0.0010330696823 -0.0067496397533 -0.0047332788818 0.0090961540118 -0.0011219368316
          -0.0024229644332 0.0046578436159 0.00054894207278 -0.007646409329 -0.0081846285611 0.0001687399199
          -0.0010203552665 -0.0024955330882 -0.009288915433 -0.0037112119608 -0.0045096660033 -0.006763825193
          -0.00059960008366 -0.0016141558299 -0.0065235858783 -0.00063363224035 -0.0116743166 -0.0083383191377
          -0.00083144218661 -0.0055922321044 -0.0026236216072 0.012013581581 -0.009288915433 0.0057850810699
          -0.010040954687 0.00010559270595 -0.00072851323057 -0.00027109278017 -3.3938718843e-005 -0.0037428671494
          -0.0043243095279 -0.011384623125 -0.001586510567 -0.0081846285611 -0.0061773993075 -0.00011896690557
          -0.0085339639336 -0.01473301556 -0.00049505988136 -0.0029629981145 -0.010586616583 -0.0067496397533
          -0.00040861286107 -0.011384623125 0.015237458982 -0.012509237044 0.0064907269552 0.00071364047471
          -0.0012702710228 -0.0016260556877 -0.0052104447968 0.00053382327314 -0.006168492604 -0.0016497441102
          -0.014069048688 -0.010040954687 -0.0090723130852 -0.00012827725732 -0.011735149659 -0.018762860447
          -0.0035363833886 -0.0083383191377 -0.013913644478 -9.4223236374e-005 0.0016929988051 -0.014069048688
          -0.015905851498 0.018413163722 0.0013444008073 0.0061265258119 -0.0043345470913 -0.0065235858783
          -0.0018970557721 -0.0046894154511 -0.012509237044 -0.017562706023 -0.010714167729 0.00023086224974
          -0.014172112569 -0.024101968855 -0.0045096660033 -0.017057014629 0.002961846767 -0.010586616583
          0.00014381408982 -0.019127245992 0.0023214942776 -0.017562706023 -0.020848376676 -0.0024955330882
          0.020768651739 0.0035131827462 -0.0085339639336 -0.010358164087 0.00050485308748 -0.010846738704
          -0.015905851498 -0.022279959172 -0.019055698067 -0.023287322372 0.0045825936832 -0.0061773993075
          -0.03124126792 0.00016873993445 -0.026287153363 -0.013913644478 0.0034485422075 -0.027834203094
          -0.022279959172 -0.0037428671494 -0.011735149659 -0.028609380126 0.00054894207278 0.020792553201
          -0.0034201841336 -0.021465463564 -0.020848376676 -0.022509332746 -0.029092617333 -0.034172911197
          0.0066143800505 -0.0090723130852 -0.00027109278017 -0.039778217673 -0.040919866413 -0.019127245992
          0.0046578436159 -0.042892955244 -0.043282154948 -0.029092617333 -0.006168492604 0.00010559271323
          -0.017057014629 -0.041884176433 0.015717264265 -0.01820027642 -0.041190583259 0.0090961540118
          -0.028609380126 -0.043867222965 -0.039959236979 -0.061350423843 -0.0016260556877 -0.014172112569
          -0.069854550064 0.0057850810699 -0.027834203094 -0.054329149425 -0.073588356376 -0.072052761912
          -0.010714167729 -0.039959236979 -0.0012702710228 -0.026287153363 -0.066419959068 0.012013582513
          0.00073370640166 -0.041884176433 -0.046651307493 -0.075375087559 -0.059397306293 -0.08218575269
          -0.0046894154511 -0.023287322372 -0.10991250724 0.0064907269552 -0.12487322837 -0.043282154948
          -0.073826566339 -0.13119877875 -0.019055698067 -0.0043345470913 -0.059397306293 -0.12728393078
          -0.042892955244 0.015237458982 -0.11425064504 -0.066419959068 -0.032118041068 -0.010846738704
          -0.098074421287 -0.13357177377 -0.097722381353 -0.039778217673 0.0061265258119 -0.14998747408
          -0.19614553452 -0.072052761912 -0.10580585152 -0.22518193722 -0.2393810153 -0.010358164087
          -0.034172911197 0.018413163722 -0.097722381353 -0.073588356376 -0.23395264149 -0.20914293826
          -0.11425064504 -0.022509332746 0.0035131827462 -0.069854550064 -0.095375046134 -0.18676657975
          -0.17709049582 -0.2311321795 -0.26847851276 -0.34767603874 -0.12728393078 -0.16911867261
          -0.40528708696 -0.021465463564 -0.061350423843 0.020768651739 -0.43792721629 -0.17709049582
          -0.13119877875 -0.43395805359 -0.39176556468 -0.043867222965 -0.0034201841336 -0.20914293826
          -0.12487322837 -0.2077639699 -0.33370742202 -0.33765870333 -0.39195561409 -0.47173932195
          -0.23395264149 -0.60717988014 -0.041190583259 -0.30648422241 0.020792553201 -0.71493524313
          -0.10991250724 -0.77890783548 -0.2393810153 -0.33765870333 -0.77822065353 -0.01820027642
          -0.08218575269 -0.71110284328 -0.39176556468 -0.22518193722 -0.62828850746 -0.39562574029
          -0.56775015593 -0.65081721544 -0.80748063326 -0.43395805359 -0.075375087559 0.015717264265
          -1.0251253843 -0.19614553452 -0.57412356138 -1.1974648237 -1.2889610529 -0.43792721629
          -0.62828850746 -1.280755043 -0.046651307493 -0.14998747408 -0.71110284328 -1.1805304289
          -0.40528708696 -1.0631583929 -0.69319278002 -0.92463940382 -0.13357177377 -1.0513261557
          -0.77822065353 0.00073370645987 -1.3231011629 -0.34767603874 -1.6229110956 -0.98730319738
          -1.8268376589 -0.77890783548 -1.8931078911 -1.0631583929 -0.098074421287 -0.26847851276
          -1.8472613096 -0.71493524313 -1.1805304289 -1.7198035717 -0.032118041068 -1.5746431351
          -0.2311321795 -1.1395784616 -1.280755043 -1.4412246943 -1.6327245235 -0.60717988014
          -2.0291676521 -1.4709385633 -2.3396100998 -2.4665250778 -1.2889610529 -0.18676657975
          -2.4154560566 -1.5746431351 -0.47173932195 -2.3048751354 -1.1974648237 -1.7198035717
          -2.1850597858 -0.095375046134 -0.39195561409 -2.0441045761 -1.8472613096 -1.7689179182
          -1.0251253843 -2.1428108215 -2.4046461582 -2.869815588 -1.90546 -3.0568974018
          -1.8931078911 -2.9962887764 -0.33370742202 -2.0441045761 -0.80748063326 -2.7794237137
          -2.5849006176 -1.8268376589 -2.1850597858 -0.2077639699 -2.4918122292 -0.65081721544
          -2.3943121433 -2.3048751354 -1.6229110956 -2.589486599 -3.021671772 -3.3226308823
          -3.7451148033 -2.2229888439 -3.7180819511 -0.56775015593 -2.4154560566 -3.478910923
          -1.3231011629 -2.3943121433 -3.1339707375 -2.4665250778 -2.7939891815 -2.4918122292
          -0.39562574029 -1.0513261557 -2.6529302597 -2.5849006176 -2.3396100998 -2.627856493
          -3.5495679379 -4.0018906593 -4.2805967331 -2.4508807659 -4.5579161644 -0.92463940382
          -4.3635864258 -2.7794237137 -2.0291676521 -4.080892086 -2.627856493 -3.7022480965
          -2.9962887764 -0.69319278002 -3.1296076775 -2.6529302597 -1.6327245235 -2.7008655071
          -3.0568974018 -2.7939891815 -2.7227776051 -4.4992904663 -4.8841953278 -1.4412246943
          -5.0474696159 -2.5864014626 -5.1150598526 -3.1339707375 -4.9005527496 -2.869815588
          -4.7176737785 -2.7227776051 -4.4808707237 -1.1395784616 -3.478910923 -3.8045022488
          -2.4046461582 -2.7008655071 -2.7757918835 -3.7180819511 -3.1296076775 -2.6152641773
          -2.1428108215 -5.2077512741 -5.3939113617 -5.3387126923 -2.4694092274 -3.7022480965
          -5.2954525948 -3.7451148033 -5.2250189781 -5.2616510391 -2.6152641773 -1.7689179182
          -5.3794875145 -4.080892086 -3.3226308823 -4.9194130898 -2.7757918835 -3.0789904594
          -4.3635864258 -3.8045022488 -1.985529542 -3.021671772 -5.479537487 -5.4104685783
          -1.5262957811 -4.4808707237 -5.2054920197 -4.5579161644 -5.1059823036 -5.014289856
          -1.985529542 -2.589486599 -5.0082468987 -4.7176737785 -5.6756772995 -4.2805967331
          -3.0789904594 -7.3860516548 -5.3162789345 -4.9005527496 -4.9194130898 -4.0018906593
          -0.40065717697 -5.1150598526 -5.3797655106 -5.3794875145 -5.239528656 2.9451680183
          -5.0439238548 -4.8993759155 -4.9330563545 -3.5495679379 -0.40065717697 -5.6646504402
          -5.2616510391 -5.0474696159 -7.7289047241 -5.3162789345 -8.5878143311 -5.2250189781
          -6.0236873627 -7.3860516548 -4.8841953278 2.8920795918 -5.2954525948 -5.6756772995
          7.5795054436 -4.4992904663 2.8920795918 -5.0082468987 -5.3387126923 -6.0236873627
          -5.014289856 -5.3939113617 -8.5878143311 -5.1059823036 -7.7289047241 -5.2077512741
          -5.2054920197 -5.6646504402 -4.9330563545 -5.4104685783 -4.8993759155 -5.479537487
          -5.0439238548 -5.239528656 -5.3797655106
        </DataArray>
        <DataArray type="Float32" Name="VELOCITY" NumberOfComponents="3" ComponentName0="X-VELOCITY" ComponentName1="Y-VELOCITY" ComponentName2="Z-VELOCITY" format="ascii" RangeMin="0" RangeMax="8.0642361449">
          0 0 0 0 0 0
          5.2583341599 0.0010261045536 0 5.2566299438 0.0010713225929 0
          5.2471861839 0.0024135115091 0 0 0 0
          5.2548880577 0.00098649063148 0 5.2477283478 0.0017125773011 0
          5.2484760284 0.0012958779698 0 5.2503437996 0.0014311675914 0
          0 0 0 5.2534613609 0.0007551208837 0
          5.2505245209 0.0011685156496 0 5.2504911423 0.00091617956059 0
          5.2491540909 0.00094445567811 0 5.2491383553 0.0013466920936 0
          0 0 0 5.252404213 0.00053225521697 0
          5.2493834496 0.0011171820806 0 5.2503314018 0.00077807932394 0
          5.2495770454 0.00070346047869 0 5.2495498657 0.00094153592363 0
          5.2502336502 0.00061109272065 0 5.2492070198 0.0010309423087 0
          0 0 0 5.2497344017 0.00074715208029 0
          5.2494149208 0.00091939448612 0 5.2516517639 0.00036708510015 0
          5.2498211861 0.00051146093756 0 5.2495946884 0.00075215206016 0
          5.2498545647 0.00059217098169 0 5.2501664162 0.00047530097072 0
          5.2497067451 0.00062799663283 0 0 0 0
          5.2490272522 0.00081464927644 0 5.2492570877 0.00071769976057 0
          5.2511401176 0.00024757077335 0 5.2494287491 0.00061307882424 0
          5.2499375343 0.0003737398074 0 5.2497911453 0.00051274645375 0
          5.2499284744 0.00046444966574 0 5.2501239777 0.00036454375368 0
          5.249569416 0.00051585963229 0 0 0 0
          5.2489829063 0.00057473382913 0 5.249853611 0.0004129325971 0
          5.2507901192 0.00016955258616 0 5.2491831779 0.0005284739309 0
          5.2496800423 0.00042652225238 0 5.2499699593 0.00036241402267 0
          5.2499842644 0.00027511714143 0 5.2493548393 0.00045617023716 0
          5.2500939369 0.00027899403358 0 5.2494959831 0.00038945113192 0
          5.2497649193 0.00034813521779 0 5.2498993874 0.00032979130629 0
          5.2489414215 0.00037250694004 0 0 0 0
          5.2496113777 0.00032653781818 0 5.2505459785 0.00011919842655 0
          5.2491321564 0.00034454555134 0 5.2499909401 0.00028322593425 0
          5.2499961853 0.00020556633535 0 5.2492990494 0.00030167947989 0
          5.2498288155 0.0002820212394 0 5.2494416237 0.0002601283195 0
          5.2500705719 0.00021548791847 0 5.2499318123 0.0002631774114 0
          5.2497038841 0.00027000965201 0 5.2495613098 0.00022026037914 0
          5.2499995232 0.00022361830634 0 5.2489285469 0.00018069018552 0
          0 0 0 5.2503705025 8.6614621978e-005 0
          5.2491087914 0.00016902424977 0 5.249777317 0.00022143464594 0
          5.2499928474 0.0001572498295 0 5.2498774529 0.00022835846175 0
          5.2492699623 0.00014933269995 0 5.2496600151 0.00018387728778 0
          5.2499542236 0.00021192214626 0 5.2500495911 0.00017022174143 0
          5.2494106293 0.00012968126975 0 5.2500014305 0.0001806964865 0
          5.2495307922 0.00011060932593 0 5.249835968 0.0001814319985 0
          5.2489571571 -1.7010210938e-015 0 5.2497406006 0.0001521975355 0
          0 0 0 5.2499136925 0.00018663797528 0
          5.2502393723 6.5209809691e-005 0 5.2491307259 -1.186572351e-015 0
          5.249982357 0.00012441612489 0 5.2492852211 -1.2663983242e-015 0
          5.2499694824 0.00017463736003 0 5.2496323586 9.3029084383e-005 0
          5.2500300407 0.00013977395429 0 5.249420166 -2.1341367801e-015 0
          5.2498059273 0.00012582658383 0 5.2498822212 0.00015003726003 0
          5.2495365143 -1.9328955161e-015 0 5.2499990463 0.00015207538672 0
          5.249941349 0.00015618857287 0 5.2497167587 7.7568212873e-005 0
          0 0 0 5.2489285469 -0.00018069018552 0
          5.2501373291 5.1013728807e-005 0 5.2491087914 -0.00016902424977 0
          5.2499666214 0.00010318362911 0 5.249979496 0.00015006506874 0
          5.2492699623 -0.00014933269995 0 5.2496352196 -1.4787069206e-015 0
          5.249859333 0.00010498570919 0 5.2494106293 -0.00012968126975 0
          5.2499194145 0.00012708063878 0 5.2500100136 0.00012163793872 0
          5.249786377 6.4581749029e-005 0 5.2497181892 -2.2995837022e-015 0
          5.2499628067 0.00013642675185 0 5.2495307922 -0.00011060932593 0
          5.2499933243 0.00013612268958 0 5.2489414215 -0.00037250694004 0
          0 0 0 5.2491321564 -0.00034454555134 0
          5.2499036789 8.9732850029e-005 0 5.2500534058 4.1744111513e-005 0
          5.2498445511 5.4249216191e-005 0 5.2499856949 0.00013742082228 0
          5.2496323586 -9.3029084383e-005 0 5.2492990494 -0.00030167947989 0
          5.2499456406 9.1157155111e-005 0 5.2499504089 0.00011241305037 0
          5.2497873306 -3.3793760094e-015 0 5.2494416237 -0.0002601283195 0
          5.2499876022 0.00011437340436 0 5.2499799728 0.00012712631724 0
          5.2497167587 -7.7568212873e-005 0 5.2495613098 -0.00022026037914 0
          5.2499842644 0.00013212747581 0 5.2498931885 4.6665838454e-005 0
          5.249941349 8.0122532381e-005 0 5.2498455048 -3.3660227468e-015 0
          5.2489829063 -0.00057473382913 0 0 0 0
          5.2496600151 -0.00018387728778 0 5.2499885559 0.00013665684673 0
          5.2499771118 0.00010613320774 0 5.2491831779 -0.0005284739309 0
          5.2499804497 3.6124729377e-005 0 5.249786377 -6.4581749029e-005 0
          5.249917984 8.7096603238e-005 0 5.2493548393 -0.00045617023716 0
          5.2494959831 -0.00038945113192 0 5.2499613762 0.00011762515351 0
          5.2497406006 -0.0001521975355 0 5.2499952316 0.00012866510951 0
          5.2498955727 -4.6661321352e-015 0 5.2499361038 4.1920164222e-005 0
          5.2499756813 7.6366057328e-005 0 5.2499709129 0.00014043906413 0
          5.2498445511 -5.4249216191e-005 0 5.2496113777 -0.00032653781818 0
          5.2500023842 0.00010880376067 0 5.2498059273 -0.00012582658383 0
          5.2499890327 0.00014869727602 0 5.2497038841 -0.00027000965201 0
          5.2490272522 -0.00081464927644 0 0 0 0
          5.249912262 3.3488002373e-005 0 5.2492570877 -0.00071769976057 0
          5.2499399185 -4.1125740813e-015 0 5.2494287491 -0.00061307882424 0
          5.2498803139 9.0708555945e-005 0 5.2498931885 -4.6665838454e-005 0
          5.2499752045 4.0174501919e-005 0 5.249569416 -0.00051585963229 0
          5.249777317 -0.00022143464594 0 5.2499279976 0.00013215800573 0
          5.2500085831 0.00014227592328 0 5.249859333 -0.00010498570919 0
          5.2500090599 7.8990218753e-005 0 5.2496800423 -0.00042652225238 0
          5.2499523163 0.00016264247824 0 5.2500281334 0.00012167984096 0
          5.249835968 -0.0001814319985 0 5.2499361038 -4.1920164222e-005 0
          5.2499861717 0.00017570838099 0 5.2497649193 -0.00034813521779 0
          5.2499814034 -2.2640006952e-015 0 5.2499036789 -8.9732850029e-005 0
          5.2492070198 -0.0010309423087 0 0 0 0
          5.2500143051 4.1748098738e-005 0 5.2498426437 3.3571839595e-005 0
          5.2494149208 -0.00091939448612 0 5.2498283386 0.00010256942915 0
          5.2495946884 -0.00075215206016 0 5.2498288155 -0.0002820212394 0
          5.2500228882 0.00017034361372 0 5.2498822212 -0.00015003726003 0
          5.2500448227 8.90098745e-005 0 5.2497067451 -0.00062799663283 0
          5.2498831749 0.00015998381423 0 5.2497911453 -0.00051274645375 0
          5.2499260902 0.00020183158631 0 5.2499752045 -4.0174501919e-005 0
          5.249941349 -8.0122532381e-005 0 5.250023365 -1.7486726263e-015 0
          5.2500572205 0.00014698255109 0 5.2498774529 -0.00022835846175 0
          5.2499194145 -0.00012708063878 0 5.2499804497 0.00022146638366 0
          5.249853611 -0.0004129325971 0 5.2500567436 4.7209956392e-005 0
          5.2491383553 -0.0013466920936 0 0 0 0
          5.2493834496 -0.0011171820806 0 5.249765873 3.6432807974e-005 0
          5.2495498657 -0.00094153592363 0 5.2499136925 -0.00018663797528 0
          5.2500858307 0.00010813625704 0 5.2497558594 0.00012417376274 0
          5.250038147 0.00021679986094 0 5.2498993874 -0.00032979130629 0
          5.2499756813 -7.6366057328e-005 0 5.2497344017 -0.00074715208029 0
          5.2498221397 0.00020462660177 0 5.2500143051 -4.1748098738e-005 0
          5.2499504089 -0.00011241305037 0 5.2500696182 -3.8109503075e-015 0
          5.2498884201 0.00026303911 0 5.2498545647 -0.00059217098169 0
          5.2500925064 0.00018825920415 0 5.2499318123 -0.0002631774114 0
          5.249941349 -0.00015618857287 0 5.2501063347 5.7491710322e-005 0
          5.2499704361 0.000291890261 0 5.2499284744 -0.00046444966574 0
          5.2500090599 -7.8990218753e-005 0 5.2501368523 0.00013905040396 0
          0 0 0 5.2499542236 -0.00021192214626 0
          5.2503437996 -0.0014311675914 0 5.2500567436 -4.7209956392e-005 0
          5.2499771118 -0.00010613320774 0 5.2505245209 -0.0011685156496 0
          5.2496757507 4.2430725443e-005 0 5.2499699593 -0.00036241402267 0
          5.2500567436 0.00028767882031 0 5.2504911423 -0.00091617956059 0
          5.2496547699 0.00015810833429 0 5.2499628067 -0.00013642675185 0
          5.2501249313 -4.4071302123e-015 0 5.2497372627 0.00027156987926 0
          5.2503314018 -0.00077807932394 0 5.2499909401 -0.00028322593425 0
          5.2502336502 -0.00061109272065 0 5.2498350143 0.00035389148979 0
          5.2501373291 0.00025088360417 0 5.2499694824 -0.00017463736003 0
          5.2501683235 7.4035422585e-005 0 5.2500023842 -0.00010880376067 0
          5.2500448227 -8.90098745e-005 0 5.2501664162 -0.00047530097072 0
          5.2499542236 0.0003958196321 0 5.2499799728 -0.00012712631724 0
          5.2501063347 -5.7491710322e-005 0 5.2502036095 0.00018578027084 0
          5.2499995232 -0.00022361830634 0 0 0 0
          5.2471861839 -0.0024135115091 0 5.2501239777 -0.00036454375368 0
          5.2495627403 5.2265037084e-005 0 5.2500801086 0.00039191357791 0
          5.249979496 -0.00015006506874 0 5.2477283478 -0.0017125773011 0
          5.2501950264 -4.8966915388e-015 0 5.2484760284 -0.0012958779698 0
          5.2495117188 0.00020836819021 0 5.2496175766 0.00036894564983 0
          5.2491540909 -0.00094445567811 0 5.2500014305 -0.0001806964865 0
          5.2502503395 9.8996395536e-005 0 5.2500281334 -0.00012167984096 0
          5.2501978874 0.00034276631777 0 5.2500939369 -0.00027899403358 0
          5.2500858307 -0.00010813625704 0 5.2495770454 -0.00070346047869 0
          5.2499952316 -0.00012866510951 0 5.2497587204 0.00048557782429 0
          5.2501683235 -7.4035422585e-005 0 5.2499856949 -0.00013742082228 0
          5.2499299049 0.00054614432156 0 5.2498211861 -0.00051146093756 0
          5.2502937317 0.00025423330953 0 5.2500705719 -0.00021548791847 0
          5.2499990463 -0.00015207538672 0 5.2502875328 -1.4394818836e-015 0