<?xml version="1.0"?>
<VTKFile type="PolyData" version="0.1" byte_order="LittleEndian" compressor="vtkZLibDataCompressor">
  <PolyData>
    <Piece NumberOfPoints="1071" NumberOfVerts="0" NumberOfLines="0" NumberOfStrips="0" NumberOfPolys="2000">
      <PointData>
        <DataArray type="Float32" Name="PRESSURE" format="ascii" RangeMin="-11.012587547" RangeMax="1.7773783207">
          0 -0.062811166048 0 -0.11782779545 0 -0.19855180383
          -0.2595641315 -0.12113226205 -0.27277094126 0 -0.34555065632 -0.40719428658
          -0.1283518374 -0.28922557831 -0.42980191112 0 -0.49980282784 -0.56097173691
          -0.15935648978 -0.45416101813 -0.58752322197 -0.33282291889 -0.61546266079 0
          -0.65603345633 -0.50511538982 -0.17492963374 -0.71610230207 -0.74264866114 -0.35723310709
          -0.66791951656 -0.76841253042 -0.53420370817 -0.81136029959 0 -0.18006195128
          -0.8700684309 -0.36751919985 -0.89383143187 -0.69513815641 -0.8155502677 -0.91215211153
          -0.54566210508 -0.96563583612 0 -0.83377605677 -1.0233095884 -0.17578746378
          -0.70164716244 -0.94851386547 -1.0429644585 -0.36267578602 -1.0511096716 -0.53751200438
          -0.83042037487 -0.95355844498 0 -1.1210507154 -0.68710511923 -1.1786389351
          -0.16869719326 -1.0752419233 -1.1945916414 -0.34961876273 -0.93997311592 -0.51878279448
          -1.1937674284 -1.0682775974 -0.80988961458 -0.66485077143 -1.2093008757 0
          -1.2809143066 -1.3396257162 -0.16764748096 -0.91774189472 -1.353798151 -1.0488960743
          -0.34350073338 -0.78971254826 -1.1965025663 -1.3488893509 -0.50936388969 -1.3631988764
          -0.65540194511 -1.0299156904 0 -0.90481287241 -1.4477475882 -1.1782176495
          -1.5085198879 -0.15780554712 -1.5235505104 -0.33650642633 -1.3530517817 -0.78392571211
          -1.5211273432 -0.51177376509 -1.024605155 -1.1656503677 -0.6688953042 -1.5422261953
          -1.3426468372 -0.90283066034 -1.6216571331 0 -1.6847125292 -0.16764748096
          -1.7028237581 -1.5421084166 -0.34350073338 -0.8037071228 -1.1643372774 -0.50936388969
          -1.3381346464 -1.7083647251 -1.0225411654 -0.9190351367 -1.5442800522 -0.65540194511
          -1.741661787 0 -1.7997267246 -0.16869719326 -1.336955905 -1.8644262552
          -1.1582753658 -1.7551425695 -0.78392571211 -0.34961876273 -1.8864728212 -1.5482336283
          -1.0262401104 -0.51878279448 -1.9022250175 -1.7707223892 -0.90283066034 -0.66485077143
          -1.9487178326 -1.3255952597 -1.544336915 -1.1472902298 0 -1.9766976833
          -0.78971254826 -1.9744406939 -1.7810914516 -0.17578746378 -2.0417411327 -1.0225411654
          -2.0668699741 -0.36267578602 -0.53751200438 -2.0913052559 -0.90481287241 -1.9995524883
          -1.3041411638 -1.527492404 -1.7715967894 -2.1477632523 -1.1582753658 -0.68710511923
          -2.0114626884 -1.024605155 -2.1801483631 -0.80988961458 0 -2.146579504
          -2.2104239464 -0.18006195128 -1.5012245178 -0.36751919985 -2.2364177704 -1.3255952597
          -1.7484362125 -0.54566210508 -0.91774189472 -2.2652037144 -2.2075037956 -1.1643372774
          -1.9936386347 -0.70164716244 -2.3256895542 -2.2152578831 -1.0299156904 -1.527492404
          -2.3568656445 -0.83042037487 -1.7210923433 -1.336955905 0 -2.3044672012
          -1.9633742571 -2.3657593727 -0.17492963374 -2.3897793293 -0.35723310709 -0.93997311592
          -2.378544569 -1.1656503677 -2.1880090237 -0.53420370817 -2.4174256325 -0.69513815641
          -2.475030899 -1.7484362125 -1.544336915 -1.9371169806 -2.3780691624 -1.0488960743
          -1.3381346464 -2.4968948364 -0.83377605677 -2.15132761 0 -2.4478940964
          -0.15935648978 -2.5057632923 -0.33282291889 -1.1782176495 -2.3427455425 -2.5251235962
          -2.5067107677 -0.95355844498 -1.7715967894 -0.50511538982 -2.5464844704 -1.9633742571
          -1.5482336283 -2.1284980774 -2.5945796967 -0.66791951656 -2.4965822697 -1.0682775974
          -1.3426468372 -2.3024189472 -2.6002805233 -0.8155502677 -1.9936386347 -2.4568665028
          -2.577381134 -1.1965025663 0 -2.15132761 -1.7810914516 -0.1283518374
          -2.6315484047 -0.94851386547 -2.5949177742 -0.28922557831 -2.6443331242 -1.5442800522
          -2.286523819 -2.6556575298 -0.45416101813 -1.0752419233 -0.61546266079 -2.6886787415
          -2.5762770176 -1.3530517817 -2.4177296162 -2.0114626884 -2.1880090237 -0.76841253042
          -2.6736555099 -1.7707223892 -2.3024189472 -2.537655592 -1.2093008757 -2.6961488724
          0 -0.91215211153 -2.7468972206 -2.6530447006 -1.5421084166 -0.12113226205
          -2.4128203392 -0.27277094126 -2.7524170876 -2.7520837784 -0.42980191112 -1.3631988764
          -2.5056393147 -2.2152578831 -2.6290330887 -1.0511096716 -2.3427455425 -0.58752322197
          -1.9995524883 -2.7662353516 -2.4177296162 -1.7551425695 -2.7291996479 -0.74264866114
          -2.5972094536 -1.1937674284 -1.5422261953 -2.5138866901 -0.89383143187 -2.696385622
          0 -2.8091123104 -0.11782779545 -2.8571684361 -2.3780691624 -2.8563139439
          -0.2595641315 -2.2075037956 -1.9744406939 -2.4568665028 -1.3488893509 -0.40719428658
          -2.8454248905 -2.5766005516 -1.0429644585 -2.6707754135 -2.5056393147 -0.56097173691
          -1.741661787 -2.8395349979 -2.783298254 -0.71610230207 -2.6486871243 -1.1945916414
          -1.5211273432 -2.5950522423 -2.378544569 -2.4965822697 -2.1801483631 -2.7434420586
          -0.8700684309 -2.537655592 -2.9213085175 -1.9487178326 0 -0.062811166048
          -2.9676487446 -0.19855180383 -2.9630746841 -1.353798151 -2.6388556957 -0.34555065632
          -2.9458353519 -1.0233095884 -2.5766005516 -2.718654871 -1.7083647251 -0.49980282784
          -2.922167778 -2.5067107677 -2.3568656445 -1.5235505104 -2.6583354473 -1.1786389351
          -2.8536953926 -2.7044117451 -2.1477632523 -2.5762770176 -0.65603345633 -2.5972094536
          -1.9022250175 -0.81136029959 -2.8123943806 -3.0359494686 -3.0815021992 -1.3396257162
          -2.6995913982 -3.0774407387 -1.7028237581 -2.6388556957 -2.7888555527 -0.96563583612
          -2.4968948364 -3.0609457493 -2.5949177742 -2.3256895542 -3.0253615379 -2.6290330887
          -2.0913052559 -2.7085356712 -1.5085198879 -1.1210507154 -2.7775382996 -2.9545092583
          -1.8864728212 -2.6486871243 -2.9165713787 -2.770827055 -1.2809143066 -2.6002805233
          -2.475030899 -2.6995913982 -1.6847125292 -3.1524505615 -3.1976764202 -2.2652037144
          -2.6530447006 -3.1991245747 -2.8944880962 -2.6707754135 -3.1920838356 -2.0668699741
          -3.1528756618 -2.762130022 -1.4477475882 -1.8644262552 -2.8819620609 -2.7044117451
          -3.0898563862 -2.5945796967 -2.4174256325 -2.6736555099 -3.0588679314 -2.696385622
          -2.2364177704 -2.770827055 -1.6216571331 -2.8689091206 -3.2650156021 -2.0417411327
          -2.718654871 -3.3094270229 -3.3206465244 -3.0393977165 -3.330950737 -2.8433692455
          -1.7997267246 -2.7775382996 -3.2962515354 -2.6886787415 -2.5464844704 -3.022572279
          -2.3897793293 -2.7291996479 -3.2484378815 -2.7434420586 -2.2104239464 -2.8689091206
          -3.2257013321 -3.0000936985 -1.9766976833 -2.7888555527 -3.3625218868 -3.4043374062
          -3.2081875801 -2.6556575298 -3.4270241261 -2.7662353516 -2.5251235962 -2.9635179043
          -3.4588429928 -2.8819620609 -2.783298254 -2.3657593727 -3.4336013794 -3.1817734241
          -2.8123943806 -2.146579504 -3.402769804 -3.0000936985 -2.8944880962 -3.1458930969
          -3.3852849007 -2.6443331242 -2.7520837784 -2.8395349979 -2.5057632923 -3.3638927937
          -3.4302997589 -2.3044672012 -2.8536953926 -3.4665224552 -3.022572279 -3.1044037342
          -3.4984178543 -3.550205946 -2.9165713787 -3.3206551075 -3.534419775 -2.7524170876
          -3.1458930969 -3.5160741806 -2.8454248905 -2.6315484047 -3.0393977165 -2.922167778
          -2.4478940964 -3.2687067986 -3.4965260029 -2.9545092583 -3.1817734241 -3.4625856876
          -3.4537937641 -3.2271249294 -3.4809246063 -3.0588679314 -3.5156505108 -3.5802035332
          -2.8563139439 -2.7468972206 -3.3996508121 -2.9458353519 -2.577381134 -3.5695536137
          -3.0253615379 -3.2687067986 -3.2081875801 -3.5555005074 -3.3350572586 -3.0898563862
          -3.5264625549 -3.3206551075 -2.8571684361 -2.9630746841 -2.6961488724 -3.4758126736
          -3.2976047993 -3.2257013321 -3.4232120514 -3.0609457493 -3.4385256767 -3.4668552876
          -3.5334296227 -3.4005429745 -3.1528756618 -3.521882534 -3.3638927937 -3.3350572586
          -3.5049500465 -3.2484378815 -3.3338279724 -2.9676487446 -2.8091123104 -3.0774407387
          -3.4644343853 -3.3996508121 -3.3852849007 -3.1920838356 -3.3044874668 -3.402664423
          -3.3376340866 -3.3405649662 -3.2962515354 -3.3526165485 -3.3318066597 -3.4100079536
          -3.4625856876 -3.3338279724 -3.3926894665 -2.9213085175 -3.402769804 -3.0815021992
          -3.1991245747 -3.3704149723 -3.2763519287 -3.330950737 -3.4005429745 -3.3239452839
          -3.4965260029 -3.2587001324 -3.4336013794 -3.2653136253 -3.0359494686 -3.2070875168
          -3.2001261711 -3.4758126736 -3.1876344681 -3.1976764202 -3.2184531689 -3.5160741806
          -3.2763519287 -3.2269268036 -3.3206465244 -3.2017338276 -3.4588429928 -3.1851084232
          -3.1766974926 -3.5264625549 -3.3318066597 -3.1348745823 -3.534419775 -3.1823849678
          -3.1524505615 -3.3094270229 -3.0969150066 -3.402664423 -3.0518846512 -3.4270241261
          -3.5555005074 -3.0405688286 -2.9986462593 -3.1851084232 -3.0891003609 -3.0150878429
          -3.550205946 -2.982886076 -3.08319664 -3.4644343853 -2.9604728222 -3.2184531689
          -3.2650156021 -3.5695536137 -2.9349989891 -3.4043374062 -3.0975804329 -2.9325709343
          -3.4984178543 -3.2653136253 -3.5049500465 -2.8994998932 -3.08319664 -2.8915288448
          -2.9691572189 -2.8198285103 -3.5802035332 -2.8141863346 -3.3625218868 -2.778635025
          -3.3239452839 -2.9895603657 -3.521882534 -3.0891003609 -2.7651295662 -3.4665224552
          -2.7662301064 -3.018709898 -3.5156505108 -3.3704149723 -2.8067970276 -3.0969150066
          -3.5334296227 -2.9895603657 -2.7799229622 -2.8811001778 -2.7837882042 -3.4302997589
          -2.6872456074 -2.6671278477 -3.1348745823 -3.4809246063 -2.6351799965 -3.3926894665
          -2.9192323685 -2.9691572189 -2.6384375095 -3.4668552876 -2.674074173 -2.9512484074
          -3.1766974926 -2.9325709343 -2.7547590733 -3.4100079536 -3.4537937641 -2.9192323685
          -2.8489339352 -2.7204141617 -3.4385256767 -2.743979454 -2.6331739426 -2.9349989891
          -3.2017338276 -2.613907814 -2.8811001778 -2.8890078068 -2.5971064568 -3.3526165485
          -2.6291055679 -2.9031436443 -2.9604728222 -2.7040374279 -3.4232120514 -2.8067970276
          -3.2269268036 -2.8115875721 -3.3405649662 -2.8890078068 -2.9025847912 -2.982886076
          -2.7401950359 -2.7893996239 -2.7662301064 -2.6800875664 -3.1876344681 -2.6835985184
          -2.8489339352 -2.9285299778 -2.6986589432 -2.7752916813 -3.3376340866 -2.7651295662
          -2.9079170227 -3.0150878429 -2.8874630928 -2.7547590733 -3.2001261711 -3.0029175282
          -2.9285299778 -2.778635025 -2.674074173 -3.0738070011 -2.9986462593 -2.8454320431
          -2.923012495 -2.8338117599 -2.9025847912 -2.883723259 -3.0802710056 -2.9484856129
          -3.2070875168 -2.6384375095 -2.8141863346 -3.0805261135 -3.0260071754 -2.8115875721
          -3.0405688286 -3.2162601948 -3.3231985569 -3.0802710056 -2.6351799965 -2.8198285103
          -2.7040374279 -3.3699951172 -3.0253920555 -3.1295557022 -3.0767593384 -3.0518846512
          -3.0738070011 -3.1889491081 -3.3604631424 -3.3100922108 -2.6671278477 -2.6291055679
          -3.487634182 -2.8915288448 -3.0029175282 -3.2877624035 -3.6225681305 -3.7115819454
          -2.5971064568 -3.3604631424 -2.6872456074 -2.8874630928 -3.7346065044 -2.8994998932
          -3.2516255379 -3.3699951172 -3.3750786781 -3.3652193546 -3.704934597 -3.5358839035
          -2.613907814 -2.7752916813 -3.6942141056 -2.7837882042 -3.8810002804 -3.3231985569
          -3.6276431084 -3.9906775951 -2.6986589432 -2.6331739426 -3.704934597 -4.0569524765
          -3.2162601948 -2.7799229622 -4.0511398315 -3.7346065044 -3.4825229645 -2.6835985184
          -3.6128325462 -3.6367409229 -3.9870522022 -3.0805261135 -2.743979454 -3.8355960846
          -3.9862887859 -3.7115819454 -3.9163243771 -4.1376452446 -4.2121701241 -2.6800875664
          -2.9484856129 -2.7204141617 -3.9870522022 -3.6225681305 -4.2567048073 -4.2224321365
          -4.0511398315 -2.883723259 -2.7893996239 -3.487634182 -3.6743187904 -3.7966032028
          -4.1237854958 -3.8304972649 -4.009598732 -4.1062083244 -4.0569524765 -4.0803937912
          -4.1992154121 -2.8338117599 -3.3100922108 -2.7401950359 -4.2514491081 -4.1237854958
          -3.9906775951 -4.2892889977 -4.2491297722 -3.1889491081 -2.923012495 -4.2224321365
          -3.8810002804 -3.7959690094 -3.8979272842 -4.1510896683 -3.914119482 -4.0328640938
          -4.2567048073 -4.0574016571 -3.0767593384 -4.1590857506 -2.8454320431 -4.1053519249
          -3.6942141056 -4.1664624214 -4.2121701241 -4.1510896683 -4.2243962288 -3.1295557022
          -3.5358839035 -4.215007782 -4.2491297722 -4.1376452446 -4.1681394577 -3.8411874771
          -3.9186427593 -3.9015874863 -3.9513528347 -4.2892889977 -3.3652193546 -3.0253920555
          -3.9239213467 -3.9862887859 -4.2162151337 -3.9636619091 -4.0664319992 -4.2514491081
          -4.1681394577 -4.1603512764 -3.3750786781 -3.8355960846 -4.215007782 -4.2022919655
          -4.1992154121 -4.2216682434 -3.8302066326 -3.8897387981 -3.6367409229 -3.8480637074
          -4.2243962288 -3.2516255379 -3.8579471111 -4.1062083244 -3.8215544224 -4.2552361488
          -3.8866744041 -4.1664624214 -4.0368852615 -4.2216682434 -3.6128325462 -4.009598732
          -4.1589369774 -4.1053519249 -4.2022919655 -4.2492723465 -3.4825229645 -4.3112053871
          -3.8304972649 -3.7980461121 -4.1603512764 -3.8536739349 -3.8201320171 -4.0574016571
          -3.8441209793 -4.3039078712 -3.8425774574 -3.9364564419 -4.0664319992 -3.7966032028
          -4.0987906456 -4.3112053871 -4.0328640938 -4.2514643669 -3.9636619091 -4.2492723465
          -4.3990011215 -3.6743187904 -3.914119482 -4.4815840721 -4.1589369774 -3.7726385593
          -3.9239213467 -3.836755991 -3.8545570374 -3.9531986713 -4.4691939354 -4.0191273689
          -4.0368852615 -4.1074047089 -3.8979272842 -4.4815840721 -3.9513528347 -4.2393574715
          -4.4493322372 -3.8866744041 -4.3990011215 -3.7959690094 -4.6709570885 -3.9015874863
          -4.7552962303 -4.2514643669 -3.8215544224 -3.7516553402 -3.823830843 -3.9261386395
          -4.1522092819 -4.7671179771 -4.3230447769 -3.9186427593 -4.0987906456 -4.3839015961
          -3.8579471111 -4.7552962303 -4.4734311104 -3.9364564419 -4.72488451 -4.6709570885
          -3.8411874771 -3.8480637074 -5.0208082199 -4.4493322372 -3.8425774574 -5.111743927
          -3.6896264553 -3.7449913025 -3.9223482609 -5.1293392181 -4.2908158302 -3.8897387981
          -4.6267848015 -4.2393574715 -3.8441209793 -4.7709131241 -5.111743927 -4.8741812706
          -4.1074047089 -3.8302066326 -5.0496764183 -5.0208082199 -3.8201320171 -5.392660141
          -4.0191273689 -4.72488451 -5.5260586739 -3.5106198788 -3.4755768776 -3.8536739349
          -3.5681550503 -5.4804010391 -3.8913238049 -4.4734311104 -4.4013075829 -3.9531986713
          -5.0628962517 -5.5260586739 -5.5079994202 -3.7980461121 -4.3839015961 -5.5637598038
          -3.8545570374 -5.392660141 -5.8621520996 -4.3230447769 -5.0496764183 -6.065182209
          -3.836755991 -3.1720547676 -2.9673852921 -2.7286102772 -5.842643261 -4.8741812706
          -2.7551083565 -4.1522092819 -3.5237874985 -5.3613262177 -6.065182209 -3.7726385593
          -6.5067629814 -4.7709131241 -3.9261386395 -6.3152222633 -5.8621520996 -6.1813368797
          -4.6267848015 -5.5637598038 -6.6558074951 -3.823830843 -2.7699389458 -2.5449876785
          -6.391043663 -5.5079994202 -1.8711208105 -4.2908158302 -0.60628974438 -0.10741157085
          -6.6558074951 -3.7516553402 -4.3641061783 -5.0628962517 -9.0773658752 -3.9223482609
          -6.1813368797 -9.1668100357 -6.4129400253 -4.4013075829 -6.3152222633 -3.7449913025
          -6.7498521805 -3.8913238049 -2.560577631 -6.5067629814 -2.0643520355 -6.9435582161
          -0.52231764793 1.7773783207 1.3546323776 -3.6896264553 -6.7498521805 -5.1177158356
          -5.3613262177 -3.5681550503 -11.012587547 -6.4129400253 -10.372516632 -3.5237874985
          -7.3978638649 -9.1668100357 -3.4755768776 -6.9320025444 -2.7551083565 -9.0773658752
          -7.0585188866 -3.5106198788 -6.9320025444 -4.3641061783 -2.7286102772 -7.3978638649
          -0.10741157085 -2.9673852921 -10.372516632 -0.60628974438 -11.012587547 -3.1720547676
          -1.8711208105 -5.1177158356 1.3546323776 -2.5449876785 1.7773783207 -2.7699389458
          -0.52231764793 -2.0643520355 -2.560577631
        </DataArray>
        <DataArray type="Float32" Name="VELOCITY" NumberOfComponents="3" ComponentName0="X-VELOCITY" ComponentName1="Y-VELOCITY" ComponentName2="Z-VELOCITY" format="ascii" RangeMin="0" RangeMax="8.3888206482">
          0 0 0 0 0 0
          4.7639145851 0.047760736197 0 4.640630722 0.058886863291 0
          4.1301970482 0.18715967238 0 0 0 0
          4.5243430138 0.052392847836 0 3.9953253269 0.19378636777 0
          3.8486011028 0.19102714956 0 4.2520866394 0.32025378942 0
          0 0 0 4.4100666046 0.051004804671 0
          4.1637644768 0.31851693988 0 4.0804800987 0.30971682072 0
          3.7033200264 0.18735848367 0 4.612112999 0.38260611892 0
          0 0 0 4.2985920906 0.049505367875 0
          4.5956311226 0.36860287189 0 4.0073208809 0.29707157612 0
          3.5639228821 0.18186858296 0 4.5801181793 0.35201391578 0
          3.9457998276 0.28106606007 0 5.0600571632 0.37717062235 0
          0 0 0 4.5701346397 0.33005848527 0
          5.084687233 0.364610672 0 4.1896648407 0.048251699656 0
          3.4324431419 0.1756324023 0 5.1038460732 0.34678444266 0
          4.569381237 0.3025816977 0 3.8969371319 0.26359838247 0
          5.1268048286 0.31788060069 0 0 0 0
          5.4760904312 0.33975926042 0 5.5172214508 0.33602073789 0
          4.0831756592 0.047333154827 0 5.5551438332 0.31673899293 0
          3.3093354702 0.16995948553 0 5.1625609398 0.27749690413 0
          4.5810685158 0.27237129211 0 3.8606209755 0.24740697443 0
          5.6060304642 0.27417463064 0 0 0 0
          5.8210191727 0.29053854942 0 5.2145915031 0.23316667974 0
          3.9784231186 0.046985756606 0 5.8835062981 0.28790944815 0
          5.6774673462 0.21482476592 0 4.6048512459 0.24496139586 0
          3.1935796738 0.16611170769 0 5.9549865723 0.25613132119 0
          3.8348605633 0.23516219854 0 6.0450954437 0.19290709496 0
          5.7634963989 0.15787349641 0 5.277089119 0.19757160544 0
          6.1196513176 0.21879246831 0 0 0 0
          6.1473550797 0.11939004809 0 3.8741483688 0.047356579453 0
          6.2155675888 0.20521660149 0 4.635579586 0.22609102726 0
          3.0831830502 0.16474914551 0 6.3205070496 0.15862834454 0
          5.8467464447 0.12568005919 0 6.4250760078 0.088765464723 0
          3.8160879612 0.22822187841 0 5.3365864754 0.18172137439 0
          6.2436304092 0.066589891911 0 6.5124597549 0.025913422927 0
          4.6649036407 0.21863004565 0 6.3666930199 0.11494782567 0
          0 0 0 3.7689602375 0.048309549689 0
          6.4795870781 0.097635582089 0 6.3140573502 0.059339337051 0
          2.9760549068 0.1654894352 0 5.9068889618 0.13131439686 0
          6.577170372 0.059401787817 0 6.5699563026 0.00031029782258 0
          5.3780937195 0.18880593777 0 3.8004038334 0.22580675781 0
          6.6414093971 0.014474173076 0 4.6847205162 0.22090177238 0
          6.6664361954 -0.015387174673 0 6.3478617668 0.10224710405 0
          6.5155906677 -4.892629063e-016 0 6.5969481468 0.026525413617 0
          0 0 0 5.9310603142 0.17096835375 0
          3.6619062424 0.049452278763 0 6.6168971062 -1.0579645858e-015 0
          2.8709044456 0.16704142094 0 6.6784520149 -3.2816468303e-015 0
          5.3923358917 0.21216821671 0 6.664545536 -0.014376186766 0
          3.785033226 0.22532713413 0 6.6904697418 -7.5619975979e-015 0
          6.6066055298 0.09465546906 0 6.3497066498 0.17610743642 0
          6.6673116684 -1.1035071545e-014 0 4.6906080246 0.22740967572 0
          5.9208388329 0.22518035769 0 6.6617841721 0.019259264693 0
          0 0 0 6.3666930199 -0.11494782567 0
          3.5528922081 0.050291635096 0 6.4795870781 -0.097635582089 0
          2.7677361965 0.16777560115 0 5.3803472519 0.23837274313 0
          6.577170372 -0.059401787817 0 6.6419305801 -1.1761010121e-014 0
          6.6202321053 0.17431232333 0 6.6414093971 -0.014474173076 0
          6.3380002975 0.24710808694 0 3.7692406178 0.22358465195 0
          6.6861901283 0.071388199925 0 6.6510243416 -7.4824967796e-015 0
          5.891793251 0.26845940948 0 6.6664361954 0.015387174673 0
          4.6835255623 0.23141267896 0 6.1196513176 -0.21879246831 0
          0 0 0 6.2155675888 -0.20521660149 0
          6.6566681862 0.23031206429 0 3.4427323341 0.05044663325 0
          6.7541704178 0.11884230375 0 5.3528828621 0.25369566679 0
          6.664545536 0.014376186766 0 6.3205070496 -0.15862834454 0
          2.6677429676 0.16642829776 0 6.3355073929 0.28430551291 0
          6.7172751427 -2.5682955874e-015 0 6.4250760078 -0.088765464723 0
          3.7542989254 0.21816624701 0 5.8656716347 0.28187692165 0
          6.6617841721 -0.019259264693 0 6.5124597549 -0.025913422927 0
          4.6689500809 0.2279163897 0 6.8623943329 0.1418056637 0
          6.7226672173 0.24092623591 0 6.8380980492 -1.0689826448e-016 0
          5.8210191727 -0.29053854942 0 0 0 0
          6.5699563026 -0.00031029782258 0 5.3251657486 0.25023671985 0
          6.3580880165 0.27424037457 0 5.8835062981 -0.28790944815 0
          3.332832098 0.049797408283 0 6.6861901283 -0.071388199925 0
          2.5727210045 0.16256095469 0 5.9549865723 -0.25613132119 0
          6.0450954437 -0.19290709496 0 3.742620945 0.20829954743 0
          6.5969481468 -0.026525413617 0 5.8605465889 0.26049456 0
          6.9878783226 3.6704504114e-015 0 6.9902729988 0.13357800245 0
          6.8106307983 0.20608413219 0 4.6541662216 0.21543487906 0
          6.7541704178 -0.11884230375 0 6.1473550797 -0.11939004809 0
          6.4091672897 0.22304362059 0 6.6066055298 -0.09465546906 0
          5.3106794357 0.22796700895 0 6.2436304092 -0.066589891911 0
          5.4760904312 -0.33975926042 0 0 0 0
          3.2246859074 0.048501674086 0 5.5172214508 -0.33602073789 0
          7.1320271492 7.7909116401e-015 0 5.5551438332 -0.31673899293 0
          2.484354496 0.15658839047 0 6.8623943329 -0.1418056637 0
          7.1110658646 0.10081858933 0 5.6060304642 -0.27417463064 0
          6.3140573502 -0.059339337051 0 3.7366008759 0.19484359026 0
          5.8853588104 0.21156287193 0 6.6202321053 -0.17431232333 0
          6.9046120644 0.14115257561 0 5.6774673462 -0.21482476592 0
          4.6455221176 0.19574172795 0 6.4822645187 0.14727655053 0
          6.3478617668 -0.10224710405 0 6.9902729988 -0.13357800245 0
          5.3177671432 0.19230163097 0 5.7634963989 -0.15787349641 0
          7.2424736023 7.1961920201e-015 0 6.6566681862 -0.23031206429 0
          5.0600571632 -0.37717062235 0 0 0 0
          7.2034254074 0.055918686092 0 3.1194324493 0.046893481165 0
          5.084687233 -0.364610672 0 2.4036960602 0.14945966005 0
          5.1038460732 -0.34678444266 0 5.8467464447 -0.12568005919 0
          5.9406142235 0.14725781977 0 6.3497066498 -0.17610743642 0
          6.9888887405 0.064520940185 0 5.1268048286 -0.31788060069 0
          3.7377667427 0.17962065339 0 5.1625609398 -0.27749690413 0
          4.6470932961 0.17225565016 0 7.1110658646 -0.10081858933 0
          6.7226672173 -0.24092623591 0 7.3049244881 5.4982712786e-015 0
          6.5670876503 0.063557490706 0 5.9068889618 -0.13131439686 0
          6.3380002975 -0.24710808694 0 5.3496947289 0.15017542243 0
          5.2145915031 -0.23316667974 0 7.2564735413 0.0094933882356 0
          4.612112999 -0.38260611892 0 0 0 0
          4.5956311226 -0.36860287189 0 3.0176246166 0.045335277915 0
          4.5801181793 -0.35201391578 0 5.9310603142 -0.17096835375 0
          7.0528039932 -0.0098168663681 0 2.3309869766 0.14222428203 0
          6.0217604637 0.078942924738 0 5.277089119 -0.19757160544 0
          6.8106307983 -0.20608413219 0 4.5701346397 -0.33005848527 0
          3.7465047836 0.1645912379 0 7.2034254074 -0.055918686092 0
          6.3355073929 -0.28430551291 0 7.3172020912 1.0825359528e-015 0
          4.6607336998 0.14843098819 0 4.569381237 -0.3025816977 0
          6.6533851624 -0.015129878186 0 5.3365864754 -0.18172137439 0
          5.9208388329 -0.22518035769 0 7.2684326172 -0.031506456435 0
          5.4059853554 0.10775665194 0 4.5810685158 -0.27237129211 0
          6.9046120644 -0.14115257561 0 7.0906209946 -0.071399606764 0
          0 0 0 5.3780937195 -0.18880593777 0
          4.2520866394 -0.32025378942 0 7.2564735413 -0.0094933882356 0
          6.3580880165 -0.27424037457 0 4.1637644768 -0.31851693988 0
          2.9192433357 0.044090569019 0 4.6048512459 -0.24496139586 0
          6.1210327148 0.016283394769 0 4.0804800987 -0.30971682072 0
          2.2657616138 0.13567942381 0 5.891793251 -0.26845940948 0
          7.2848706245 -1.3187789475e-015 0 3.7621860504 0.15127135813 0
          4.0073208809 -0.29707157612 0 4.635579586 -0.22609102726 0
          3.9457998276 -0.28106606007 0 4.6865057945 0.12701629102 0
          6.7308616638 -0.076952889562 0 5.3923358917 -0.21216821671 0
          7.2436132431 -0.061272889376 0 6.4091672897 -0.22304362059 0
          6.9888887405 -0.064520940185 0 3.8969371319 -0.26359838247 0
          5.4827694893 0.070490792394 0 5.8656716347 -0.28187692165 0
          7.2684326172 0.031506456435 0 7.0996203423 -0.10919168591 0
          4.6649036407 -0.21863004565 0 0 0 0
          4.1301970482 -0.18715967238 0 3.8606209755 -0.24740697443 0
          2.8238945007 0.043243780732 0 6.2266869545 -0.030741550028 0
          5.3803472519 -0.23837274313 0 3.9953253269 -0.19378636777 0
          7.2195124626 -1.0125144919e-015 0 3.8486011028 -0.19102714956 0
          2.207098484 0.13015913963 0 3.7833712101 0.1404710114 0
          3.7033200264 -0.18735848367 0 4.6847205162 -0.22090177238 0
          7.1915745735 -0.072874471545 0 6.4822645187 -0.14727655053 0
          6.787768364 -0.10843275487 0 3.8348605633 -0.23516219854 0
          7.0528039932 0.0098168663681 0 3.5639228821 -0.18186858296 0
          5.8605465889 -0.26049456 0 4.7226443291 0.11006840318 0
          7.2436132431 0.061272889376 0 5.3528828621 -0.25369566679 0
          5.5717568398 0.043996226043 0 3.4324431419 -0.1756324023 0
          7.0800013542 -0.11082517356 0 3.8160879612 -0.22822187841 0
          4.6906080246 -0.22740967572 0 7.1398487091 2.7328340667e-015 0
          3.3093354702 -0.16995948553 0 6.3218827248 -0.05101037398 0
          4.7639145851 -0.047760736197 0 0 0 0
          4.640630722 -0.058886863291 0 2.7311244011 0.042659915984 0
          6.5670876503 -0.063557490706 0 2.1539254189 0.12542711198 0
          4.5243430138 -0.052392847836 0 5.8853588104 -0.21156287193 0
          5.3251657486 -0.25023671985 0 7.0906209946 0.071399606764 0
          3.8004038334 -0.22580675781 0 4.4100666046 -0.051004804671 0
          3.807911396 0.13220463693 0 7.1282353401 -0.05954727158 0
          3.1935796738 -0.16611170769 0 6.8119125366 -0.096467867494 0
          7.1915745735 0.072874471545 0 4.2985920906 -0.049505367875 0
          4.6835255623 -0.23141267896 0 4.7650270462 0.099077738822 0
          5.659383297 0.033882614225 0 4.1896648407 -0.048251699656 0
          7.0373563766 -0.067929714918 0 3.0831830502 -0.16474914551 0
          3.785033226 -0.22532713413 0 7.0719838142 5.0779129674e-015 0
          5.9406142235 -0.14725781977 0 6.6533851624 0.015129878186 0
          5.3106794357 -0.22796700895 0 6.3866019249 -0.035398002714 0
          4.0831756592 -0.047333154827 0 7.0996203423 0.10919168591 0
          0 0 0 4.6689500809 -0.2279163897 0
          0 0 0 0 0 0
          2.6407954693 0.041973039508 0 0 0 0
          2.105345726 0.12062995881 0 2.9760549068 -0.1654894352 0
          7.0758166313 -0.019469035789 0 0 0 0
          3.8330140114 0.12561774254 0 3.9784231186 -0.046985756606 0
          7.1282353401 0.05954727158 0 6.7957348824 -0.036034122109 0
          3.7692406178 -0.22358465195 0 0 0 0
          4.8068766594 0.094636134803 0 6.0217604637 -0.078942924738 0
          5.3177671432 -0.19230163097 0 2.8709044456 -0.16704142094 0
          7.0448083878 9.7293829623e-015 0 3.8741483688 -0.047356579453 0
          5.7284340858 0.043427340686 0 6.9853920937 0.01501991041 0
          4.6541662216 -0.21543487906 0 6.7308616638 0.076952889562 0
          0 0 0 7.0800013542 0.11082517356 0
          3.7542989254 -0.21816624701 0 0 0 0
          6.4043431282 0.016450177878 0 0 0 0
          2.5534825325 0.040611989796 0 3.7689602375 -0.048309549689 0
          7.0584468842 0.039199281484 0 2.0609948635 0.11432876438 0
          2.7677361965 -0.16777560115 0 7.0758166313 0.019469035789 0
          6.7432136536 0.060781281441 0 0 0 0
          5.3496947289 -0.15017542243 0 3.8555011749 0.11890588701 0
          6.1210327148 -0.016283394769 0 4.6455221176 -0.19574172795 0
          4.8397545815 0.095492519438 0 6.787768364 0.10843275487 0
          3.742620945 -0.20829954743 0 7.0797491074 1.1763614747e-014 0
          3.6619062424 -0.049452278763 0 0 0 0
          6.9449057579 0.11526980996 0 5.7634944916 0.069719403982 0
          2.6677429676 -0.16642829776 0 7.0373563766 0.067929714918 0
          6.371342659 0.089939974248 0 7.0930776596 0.097828306258 0
          0 0 0 5.4059853554 -0.10775665194 0