<?xml version="1.0"?>
<VTKFile type="PolyData" version="0.1" byte_order="LittleEndian" compressor="vtkZLibDataCompressor">
  <PolyData>
    <Piece NumberOfPoints="1071" NumberOfVerts="0" NumberOfLines="0" NumberOfStrips="0" NumberOfPolys="2000">
      <PointData>
        <DataArray type="Float32" Name="PRESSURE" format="ascii" RangeMin="-7.8234300613" RangeMax="3.9920048714">
          0 -0.06011954695 0 -0.11001397669 0 -0.17252227664
          -0.22794465721 -0.11230883747 -0.23343062401 0 -0.28349086642 -0.33384990692
          -0.1290422529 -0.24869792163 -0.34114393592 0 -0.3861695528 -0.432592839
          -0.15413804352 -0.34950217605 -0.43828380108 -0.27882453799 -0.43707469106 0
          -0.48440498114 -0.37683966756 -0.16257399321 -0.52837896347 -0.53058767319 -0.28828710318
          -0.4577832818 -0.51905882359 -0.38012951612 -0.58316957951 0 -0.1625969708
          -0.62649857998 -0.28481155634 -0.62513661385 -0.45131766796 -0.53222876787 -0.60505211353
          -0.37079185247 -0.68799096346 0 -0.51572227478 -0.73230117559 -0.15494740009
          -0.4360640049 -0.61218810081 -0.72882449627 -0.27047091722 -0.70426112413 -0.35559204221
          -0.49679577351 -0.58793282509 0 -0.80313009024 -0.42399710417 -0.84962320328
          -0.13940037787 -0.70869022608 -0.84649312496 -0.24816127121 -0.5689265132 -0.33656466007
          -0.82302433252 -0.68100172281 -0.490244627 -0.41305762529 -0.82905834913 0
          -0.93025928736 -0.97946727276 -0.11962417513 -0.56839764118 -0.97943890095 -0.66599905491
          -0.22803336382 -0.48777279258 -0.80334943533 -0.96280133724 -0.32044830918 -0.9743462801
          -0.40296646953 -0.67060709 0 -0.57116007805 -1.0677018166 -0.79592216015
          -1.1192941666 -0.12024963647 -1.1245646477 -0.23300592601 -0.9553771615 -0.48239403963
          -1.1190180779 -0.33149114251 -0.67420613766 -0.80439758301 -0.41713503003 -1.1378842592
          -0.95719265938 -0.56711918116 -1.2104270458 0 -1.2631605864 -0.11962417513
          -1.2746287584 -1.127650857 -0.22803336382 -0.49333778024 -0.80570489168 -0.32044830918
          -0.9679672718 -1.2815914154 -0.66875272989 -0.56862664223 -1.1369780302 -0.40296646953
          -1.3062770367 0 -1.350905776 -0.13940037787 -0.96492421627 -1.4027867317
          -0.7978412509 -1.3026678562 -0.48239403963 -0.24816127121 -1.4197355509 -1.1467766762
          -0.65880978107 -0.33656466007 -1.4373495579 -1.3138025999 -0.56711918116 -0.41305762529
          -1.4630615711 -0.95368158817 -1.1364023685 -0.77936452627 0 -1.4806315899
          -0.48777279258 -1.4602652788 -1.3167908192 -0.15494740009 -1.5292755365 -0.66875272989
          -1.5496277809 -0.27047091722 -0.35559204221 -1.5734789371 -0.57116007805 -1.464962244
          -0.93155419827 -1.1193906069 -1.2951840162 -1.593490839 -0.7978412509 -0.42399710417
          -1.4545644522 -0.67420613766 -1.5841084719 -0.490244627 0 -1.5918524265
          -1.6349388361 -0.1625969708 -1.0975835323 -0.28481155634 -1.6559327841 -0.95368158817
          -1.2701913118 -0.37079185247 -0.56839764118 -1.6805194616 -1.5746722221 -0.80570489168
          -1.4196904898 -0.4360640049 -1.6882054806 -1.5468895435 -0.67060709 -1.1193906069
          -1.6659244299 -0.49679577351 -1.2513519526 -0.96492421627 0 -1.6790133715
          -1.3873763084 -1.7146940231 -0.16257399321 -1.7336248159 -0.28828710318 -0.5689265132
          -1.6380742788 -0.80439758301 -1.5009250641 -0.38012951612 -1.7538555861 -0.45131766796
          -1.7445095778 -1.2701913118 -1.1364023685 -1.3736258745 -1.5933821201 -0.66599905491
          -0.9679672718 -1.7060168982 -0.51572227478 -1.4653961658 0 -1.7395869493
          -0.15413804352 -1.7667530775 -0.27882453799 -0.79592216015 -1.5422999859 -1.7814792395
          -1.6599498987 -0.58793282509 -1.2951840162 -0.37683966756 -1.7936751842 -1.3873763084
          -1.1467766762 -1.4586100578 -1.7655899525 -0.4577832818 -1.6027300358 -0.68100172281
          -0.95719265938 -1.5093510151 -1.7112065554 -0.53222876787 -1.4196904898 -1.5539892912
          -1.7742390633 -0.80334943533 0 -1.4653961658 -1.3167908192 -0.1290422529
          -1.7926443815 -0.61218810081 -1.6509445906 -0.24869792163 -1.8017829657 -1.1369780302
          -1.5106239319 -1.8041085005 -0.34950217605 -0.70869022608 -0.43707469106 -1.7589446306
          -1.5877131224 -0.9553771615 -1.5287201405 -1.4545644522 -1.5009250641 -0.51905882359
          -1.6923854351 -1.3138025999 -1.5093510151 -1.5479464531 -0.82905834913 -1.7864599228
          0 -0.60505211353 -1.7967520952 -1.6245690584 -1.127650857 -0.11230883747
          -1.5373481512 -0.23343062401 -1.7996965647 -1.7922844887 -0.34114393592 -0.9743462801
          -1.5329452753 -1.5468895435 -1.56259799 -0.70426112413 -1.5422999859 -0.43828380108
          -1.464962244 -1.7350460291 -1.5287201405 -1.3026678562 -1.6629692316 -0.53058767319
          -1.5362740755 -0.82302433252 -1.1378842592 -1.545363903 -0.62513661385 -1.5960841179
          0 -1.7818177938 -0.11001397669 -1.7855180502 -1.5933821201 -1.7824499607
          -0.22794465721 -1.5746722221 -1.4602652788 -1.5539892912 -0.96280133724 -0.33384990692
          -1.7674984932 -1.5308343172 -0.72882449627 -1.5430698395 -1.5329452753 -0.432592839
          -1.3062770367 -1.7062969208 -1.6379129887 -0.52837896347 -1.5323102474 -0.84649312496
          -1.1190180779 -1.5404424667 -1.6380742788 -1.6027300358 -1.5841084719 -1.5821298361
          -0.62649857998 -1.5479464531 -1.7669264078 -1.4630615711 0 -0.06011954695
          -1.7663322687 -0.17252227664 -1.7582505941 -0.97943890095 -1.5330855846 -0.28349086642
          -1.740085721 -0.73230117559 -1.5308343172 -1.5465240479 -1.2815914154 -0.3861695528
          -1.6854861975 -1.6599498987 -1.6659244299 -1.1245646477 -1.532137394 -0.84962320328
          -1.6319169998 -1.5517451763 -1.593490839 -1.5877131224 -0.48440498114 -1.5362740755
          -1.4373495579 -0.58316957951 -1.5988035202 -1.7482010126 -1.7461339235 -0.97946727276
          -1.5546540022 -1.7347242832 -1.2746287584 -1.5330855846 -1.5893788338 -0.68799096346
          -1.7060168982 -1.7194619179 -1.6509445906 -1.6882054806 -1.6829396486 -1.56259799
          -1.5734789371 -1.5380291939 -1.1192941666 -0.80313009024 -1.6094765663 -1.6556328535
          -1.4197355509 -1.5323102474 -1.6562181711 -1.6110978127 -0.93025928736 -1.7112065554
          -1.7445095778 -1.5546540022 -1.2631605864 -1.7305879593 -1.729948163 -1.6805194616
          -1.6245690584 -1.717061758 -1.6789386272 -1.5430698395 -1.7114322186 -1.5496277809
          -1.7026849985 -1.5792223215 -1.0677018166 -1.4027867317 -1.7094863653 -1.5517451763
          -1.7103016376 -1.7655899525 -1.7538555861 -1.6923854351 -1.7504013777 -1.5960841179
          -1.6559327841 -1.6110978127 -1.2104270458 -1.7061254978 -1.7166547775 -1.5292755365
          -1.5465240479 -1.7198790312 -1.706616044 -1.8027745485 -1.715940237 -1.6642444134
          -1.350905776 -1.6094765663 -1.7395592928 -1.7589446306 -1.7936751842 -1.8335335255
          -1.7336248159 -1.6629692316 -1.7837560177 -1.5821298361 -1.6349388361 -1.7061254978
          -1.8583577871 -1.8196651936 -1.4806315899 -1.5893788338 -1.7065124512 -1.7151577473
          -1.9260323048 -1.8041085005 -1.7009366751 -1.7350460291 -1.7814792395 -1.7748258114
          -1.7269748449 -1.7094863653 -1.6379129887 -1.7146940231 -1.779794693 -1.9427019358
          -1.5988035202 -1.5918524265 -1.8520576954 -1.8196651936 -1.6789386272 -1.9132782221
          -1.9438546896 -1.8017829657 -1.7922844887 -1.7062969208 -1.7667530775 -2.0053393841
          -1.6988319159 -1.6790133715 -1.6319169998 -1.7135066986 -1.8335335255 -1.8729991913
          -1.6957023144 -1.7354953289 -1.6562181711 -1.9980570078 -1.8061214685 -1.7996965647
          -1.9132782221 -1.8886336088 -1.7674984932 -1.7926443815 -1.8027745485 -1.6854861975
          -1.7395869493 -1.9549418688 -1.9743460417 -1.6556328535 -1.9427019358 -2.0129656792
          -1.6927340031 -1.9278044701 -1.7134218216 -1.7504013777 -1.687936902 -1.7344033718
          -1.7824499607 -1.7967520952 -1.9857758284 -1.740085721 -1.7742390633 -1.8056515455
          -1.6829396486 -1.9549418688 -1.9260323048 -1.8772490025 -1.9414891005 -1.7103016376
          -1.9387148619 -1.9980570078 -1.7855180502 -1.7582505941 -1.7864599228 -1.9528590441
          -1.9356374741 -1.8583577871 -1.6898504496 -1.7194619179 -1.7164586782 -1.6790910959
          -1.7232800722 -1.9245250225 -1.7026849985 -1.7769992352 -2.0053393841 -1.9414891005
          -1.821534276 -1.7837560177 -1.8969172239 -1.7663322687 -1.7818177938 -1.7347242832
          -1.8538380861 -1.9857758284 -1.9438546896 -1.7114322186 -1.9147862196 -1.856974721
          -1.695690155 -1.7285518646 -1.7395592928 -1.6766309738 -1.8500432968 -1.7108097076
          -2.0129656792 -1.8969172239 -1.733528614 -1.7669264078 -1.8520576954 -1.7461339235
          -1.717061758 -1.7458995581 -1.8504832983 -1.715940237 -1.9245250225 -1.7573574781
          -1.9743460417 -1.8842790127 -1.779794693 -1.7678683996 -1.7482010126 -1.7196639776
          -1.759778738 -1.9528590441 -1.6934736967 -1.729948163 -1.793797493 -1.8886336088
          -1.8504832983 -1.7139800787 -1.706616044 -1.7013601065 -1.7269748449 -1.8193391562
          -1.6881248951 -1.9387148619 -1.8500432968 -1.6934870481 -1.8061214685 -1.8538359404
          -1.7305879593 -1.7198790312 -1.7226624489 -1.856974721 -1.7735594511 -1.7009366751
          -1.8772490025 -1.8224874735 -1.7453609705 -1.8193391562 -1.7752541304 -1.7542530298
          -1.7354953289 -1.7124546766 -1.8122601509 -1.8538380861 -1.6875748634 -1.793797493
          -1.7166547775 -1.8056515455 -1.6998518705 -1.7151577473 -1.8348469734 -1.7466387749
          -1.6957023144 -1.7678683996 -1.821534276 -1.8687027693 -1.8122601509 -1.9281500578
          -1.8080530167 -1.8467890024 -1.7344033718 -1.8516676426 -1.7065124512 -1.7947363853
          -1.7573574781 -1.8422831297 -1.7769992352 -1.7752541304 -1.7733769417 -1.7135066986
          -1.7983921766 -1.8504669666 -1.687936902 -1.7458995581 -1.8518118858 -1.7226624489
          -1.7232800722 -1.8422831297 -2.0124034882 -1.903060317 -2.0836319923 -1.6988319159
          -2.0065004826 -2.0185871124 -1.6934870481 -1.7134218216 -1.9630624056 -1.733528614
          -1.9247057438 -1.8080530167 -1.9561669827 -1.6790910959 -1.9904795885 -1.9221775532
          -1.6881248951 -1.7466387749 -2.0348186493 -1.7108097076 -1.6927340031 -1.9247057438
          -2.0612711906 -2.2044789791 -1.7164586782 -2.2877070904 -2.2236726284 -1.6998518705
          -1.7013601065 -2.2551109791 -1.903060317 -2.0623979568 -2.2148406506 -1.6766309738
          -2.2261137962 -2.048481226 -1.6875748634 -2.2581551075 -1.6898504496 -1.8518118858
          -1.7139800787 -2.2777137756 -1.7285518646 -2.0623979568 -2.2691540718 -1.7124546766
          -2.4346129894 -2.5284922123 -1.7983921766 -2.4854192734 -1.6934736967 -2.5468308926
          -2.0612711906 -2.241137743 -2.5302152634 -2.5560393333 -1.695690155 -1.7733769417
          -2.2065548897 -1.7542530298 -2.5698866844 -2.0348186493 -1.759778738 -2.5521697998
          -2.241137743 -1.7947363853 -1.9904795885 -2.5018281937 -1.7453609705 -2.6811096668
          -2.782138586 -2.7652649879 -2.2691540718 -2.8631715775 -2.4375808239 -2.8718891144
          -1.7196639776 -1.9561669827 -1.8516676426 -2.9020981789 -2.3718366623 -2.2777137756
          -1.8224874735 -2.8806586266 -2.8171272278 -2.4375808239 -1.9630624056 -1.8467890024
          -2.2581551075 -2.7226519585 -2.9116516113 -3.0132865906 -3.0224671364 -1.7735594511
          -2.5018281937 -3.1548423767 -2.621701479 -3.1809999943 -2.0185871124 -2.2261137962
          -3.1976296902 -1.9281500578 -2.5521697998 -2.52430439 -3.1241564751 -3.0112075806
          -2.2148406506 -2.621701479 -2.0065004826 -2.5698866844 -2.8784193993 -1.8687027693
          -3.0872647762 -2.7226519585 -3.1789479256 -3.2047932148 -2.7498276234 -3.3546674252
          -2.2551109791 -2.5560393333 -3.3766651154 -2.0836319923 -3.3544454575 -2.8171272278
          -2.6330108643 -3.2188966274 -2.5302152634 -2.2236726284 -2.7498276234 -3.0640685558
          -2.8806586266 -2.0124034882 -2.9101445675 -2.8784193993 -3.1711146832 -2.5468308926
          -3.2385041714 -3.2602376938 -2.7688696384 -2.9020981789 -2.2877070904 -3.3922126293
          -3.3768658638 -3.0112075806 -2.6508009434 -3.29500103 -3.1090118885 -2.4854192734
          -2.8718891144 -2.2044789791 -2.7688696384 -3.1241564751 -2.9386920929 -2.788184166
          -2.9101445675 -2.8631715775 -2.5284922123 -3.1976296902 -3.1422841549 -3.170550108
          -2.6471486092 -3.1600589752 -3.227632761 -3.1455376148 -3.0640685558 -2.5464057922
          -3.0083265305 -2.7652649879 -3.1809999943 -2.4346129894 -2.8128876686 -2.6471486092
          -3.2188966274 -2.6659998894 -2.5395236015 -3.1548423767 -2.782138586 -2.788184166
          -3.3544454575 -3.0105016232 -2.99091506 -2.4067308903 -2.9241800308 -2.8901627064
          -2.9386920929 -2.7364735603 -3.0224671364 -2.3450498581 -2.6811096668 -2.5789945126
          -3.3766651154 -2.4223322868 -3.1090118885 -2.4067308903 -2.3259699345 -3.0132865906
          -3.3546674252 -2.2331864834 -2.5395236015 -3.29500103 -2.1194636822 -2.8234088421
          -2.7596230507 -2.6297152042 -2.4887366295 -2.6659998894 -3.2047932148 -2.9116516113
          -2.2895050049 -3.3768658638 -2.123165369 -2.1510062218 -2.0489287376 -2.8128876686
          -2.1194636822 -1.9986866713 -3.1789479256 -3.3922126293 -2.2331864834 -1.9403971434
          -3.0083265305 -1.8612880707 -2.6580166817 -2.5661771297 -3.2602376938 -2.3880186081
          -2.3259699345 -3.0872647762 -2.1718232632 -3.1455376148 -1.9654948711 -1.9302713871
          -1.8506920338 -2.4223322868 -1.7676416636 -1.8612880707 -3.2385041714 -3.227632761
          -1.7267985344 -2.5789945126 -1.9403971434 -1.6900807619 -3.1711146832 -1.6370226145
          -3.1600589752 -2.5948107243 -1.9986866713 -2.4955701828 -2.2960352898 -2.7364735603
          -2.0518600941 -1.6896258593 -1.8519655466 -1.7114303112 -2.0489287376 -3.170550108
          -1.5752216578 -1.6370226145 -2.8901627064 -1.4873056412 -2.1510062218 -1.6900807619
          -1.4397630692 -3.1422841549 -2.9241800308 -1.3724757433 -1.7267985344 -2.6829557419
          -2.2895050049 -2.5915687084 -2.3895320892 -2.1404008865 -1.304603219 -1.895508647
          -1.7676416636 -1.6443066597 -2.99091506 -1.3724757433 -2.4887366295 -1.3940279484
          -1.2332296371 -1.8506920338 -1.4397630692 -3.0105016232 -1.1815719604 -2.6297152042
          -1.1137452126 -1.4873056412 -1.9654948711 -2.9103825092 -2.8343939781 -2.6309909821
          -2.3446264267 -0.95965182781 -1.9337948561 -2.7596230507 -1.5752216578 -1.5062149763
          -2.1718232632 -1.1137452126 -1.1657893658 -1.7114303112 -1.0287700891 -1.1815719604
          -2.8234088421 -2.3880186081 -1.0555305481 -1.2332296371 -1.8519655466 -1.0222965479
          -3.1875135899 -3.1385440826 -2.9475975037 -0.89634948969 -2.5591883659 -2.5661771297
          -1.8206809759 -1.3940279484 -2.0518600941 -1.1890333891 -1.0222965479 -0.93643188477
          -1.6443066597 -2.6580166817 -0.98205155134 -1.0555305481 -2.2960352898 -1.0361963511
          -1.895508647 -1.0287700891 -0.9819868207 -3.3395991325 -3.3568131924 -2.4955701828
          -3.3103456497 -0.95905447006 -2.8124654293 -1.1657893658 -1.4742583036 -2.1404008865
          -0.61389958858 -0.9819868207 -0.76722925901 -2.5948107243 -1.5062149763 -0.97470271587
          -2.3895320892 -1.0361963511 -0.8383589983 -1.9337948561 -0.98205155134 -0.80950069427
          -2.5915687084 -3.0963017941 -3.2329344749 -3.7899951935 -0.87422329187 -0.93643188477
          -3.3631660938 -2.3446264267 -1.025693655 0.3302936554 -0.80950069427 -2.6829557419
          -0.38185504079 -1.1890333891 -2.6309909821 -0.69713145494 -0.8383589983 -0.51856184006
          -1.8206809759 -0.97470271587 -0.57429742813 -2.8343939781 -2.1784467697 -2.418815136
          -0.61056917906 -0.76722925901 -4.3043899536 -2.5591883659 -4.9418334961 -1.5688352585
          -0.57429742813 -2.9103825092 1.8447185755 -0.61389958858 0.93292427063 -2.9475975037
          -0.51856184006 -0.29705244303 -0.37991654873 -1.4742583036 -0.69713145494 -3.1385440826
          -0.40397039056 -2.8124654293 -0.87182956934 -0.38185504079 -1.9258497953 -0.45110327005
          -7.2151675224 -7.8234300613 -0.97792315483 -3.1875135899 -0.40397039056 3.9920048714
          0.3302936554 -3.3103456497 2.2810292244 -0.37991654873 0.28968814015 -1.025693655
          -0.19491651654 -0.29705244303 -3.3568131924 -0.3279350996 -3.3631660938 0.93292427063
          -0.37102621794 -3.3395991325 -0.3279350996 1.8447185755 -3.7899951935 -0.19491651654
          -1.5688352585 -3.2329344749 0.28968814015 -4.9418334961 2.2810292244 -3.0963017941
          -4.3043899536 3.9920048714 -0.97792315483 -2.418815136 -7.8234300613 -2.1784467697
          -7.2151675224 -1.9258497953 -0.87182956934
        </DataArray>
        <DataArray type="Float32" Name="VELOCITY" NumberOfComponents="3" ComponentName0="X-VELOCITY" ComponentName1="Y-VELOCITY" ComponentName2="Z-VELOCITY" format="ascii" RangeMin="0" RangeMax="8.014383316">
          0 0 0 0 0 0
          3.8064920902 0.043356906623 0 3.7056229115 0.050014454871 0
          2.9391784668 0.15047205985 0 0 0 0
          3.6115283966 0.043162565678 0 2.8749494553 0.13981994987 0
          2.8018498421 0.13255868852 0 3.8031005859 0.20270623267 0
          0 0 0 3.5228204727 0.039540480822 0
          3.7776255608 0.18828056753 0 3.7645263672 0.17147856951 0
          2.7321116924 0.12478790432 0 4.634914875 0.2133692354 0
          0 0 0 3.439227581 0.037628155202 0
          4.6326198578 0.1925573945 0 3.7616539001 0.15731886029 0
          2.6653878689 0.12019529194 0 4.6413292885 0.16478873789 0
          3.7662696838 0.14724825323 0 5.2629323006 0.21249166131 0
          0 0 0 4.6601333618 0.14260044694 0
          5.2739677429 0.18330261111 0 3.3580713272 0.037085860968 0
          2.6014206409 0.11836928129 0 5.2995438576 0.14277116954 0
          4.6858258247 0.12692660093 0 3.7760915756 0.14185479283 0
          5.3386998177 0.1104458645 0 0 0 0
          5.787551403 0.19618244469 0 5.8337159157 0.14813007414 0
          3.2771322727 0.037717644125 0 5.8937015533 0.092768408358 0
          2.5387852192 0.11949253827 0 5.3869943619 0.088769286871 0
          4.7146806717 0.11914603412 0 3.7884979248 0.14140614867 0
          5.9625730515 0.050654351711 0 0 0 0
          6.3254437447 0.14067217708 0 5.4381809235 0.080216467381 0
          3.1944718361 0.039153255522 0 6.4010024071 0.079619944096 0
          6.0327367783 0.026403171942 0 4.7425761223 0.11959282309 0
          2.4760820866 0.12275062501 0 6.4759545326 0.019713969901 0
          3.8010129929 0.14472065866 0 6.5418672562 -0.018869880587 0
          6.0948719978 0.023869615048 0 5.485121727 0.085506632924 0
          6.7794618607 0.061360362917 0 0 0 0
          6.5912380219 -0.030797852203 0 3.108912468 0.040866523981 0
          6.8427414894 0.0099718431011 0 4.765434742 0.12678901851 0
          2.4124696255 0.12680414319 0 6.8852672577 -0.034618735313 0
          6.1390471458 0.044153209776 0 6.9045934677 -0.053511630744 0
          3.8116443157 0.14976616204 0 5.5205888748 0.10281960666 0
          6.6171851158 -0.012088249438 0 6.9023880959 -0.042931064963 0
          4.7798633575 0.1378608793 0 7.0029649734 0.004563184455 0
          0 0 0 3.0202560425 0.04228272289 0
          7.0201854706 -0.019164089113 0 6.615758419 0.035684261471 0
          2.347987175 0.13003015518 0 6.1576628685 0.083126343787 0
          7.0097374916 -0.038088966161 0 6.8835372925 -0.001906078076 0
          5.5394153595 0.12719096243 0 3.8192405701 0.15400670469 0
          6.9813346863 -0.038653682917 0 4.7843322754 0.14868269861 0
          6.95008564 -0.019700104371 0 6.5899362564 0.10119815916 0
          7.0470581055 -7.9263177976e-016 0 6.8577036858 0.062161270529 0
          0 0 0 6.1500020027 0.12956666946 0
          2.9293968678 0.042850829661 0 7.0278286934 -5.7107702458e-016 0
          2.283664465 0.13081611693 0 6.9842000008 2.9560875994e-015 0
          5.5414748192 0.15035638213 0 6.9327702522 0.016806425527 0
          3.8238301277 0.15486136079 0 6.938472271 6.8945970454e-015 0
          6.8391041756 0.13088433444 0 6.5519514084 0.16331847012 0
          6.91233778 1.0193559558e-014 0 4.7803430557 0.15453155339 0
          6.1250123978 0.16684408486 0 6.9452424049 0.062138490379 0
          0 0 0 7.0029649734 -0.004563184455 0
          2.8382444382 0.042153384537 0 7.0201854706 0.019164089113 0
          2.2213895321 0.12790241838 0 5.5331602097 0.16276535392 0
          7.0097374916 0.038088966161 0 6.9254555702 1.1142155144e-014 0
          6.8422617912 0.17961162329 0 6.9813346863 0.038653682917 0
          6.5201277733 0.19844597578 0 3.826728344 0.1502802223 0
          6.9965262413 0.10134479403 0 6.9885001183 8.3910658234e-015 0
          6.098845005 0.17945334315 0 6.95008564 0.019700104371 0
          4.7725977898 0.15139564872 0 6.7794618607 -0.061360362917 0
          0 0 0 6.8427414894 -0.0099718431011 0
          6.8748755455 0.18895767629 0 2.7494452 0.039992369711 0
          7.0829133987 0.1192310527 0 5.5254569054 0.15737044811 0
          6.9327702522 -0.016806425527 0 6.8852672577 0.034618735313 0
          2.1635580063 0.12064436823 0 6.5106883049 0.19210372865 0
          7.0959763527 8.8211188503e-015 0 6.9045934677 0.053511630744 0
          3.8302135468 0.13924480975 0 6.0876960754 0.16052357852 0
          6.9452424049 -0.062138490379 0 6.9023880959 0.042931064963 0
          4.7676215172 0.13738583028 0 7.1870422363 0.10849777609 0
          6.9329218864 0.15519435704 0 7.22519207 9.4449450634e-015 0
          6.3254437447 -0.14067217708 0 0 0 0
          6.8835372925 0.001906078076 0 5.5292806625 0.13277462125 0
          6.5300459862 0.14612919092 0 6.4010024071 -0.079619944096 0
          2.6659736633 0.036414090544 0 6.9965262413 -0.10134479403 0
          2.112612009 0.10909282416 0 6.4759545326 -0.019713969901 0
          6.5418672562 0.018869880587 0 3.8367948532 0.12196981162 0
          6.8577036858 -0.062161270529 0 6.1006374359 0.11470979452 0
          7.344481945 5.512459504e-015 0 7.2843313217 0.07356441766 0
          7.0022802353 0.091207303107 0 4.77140522 0.11337345839 0
          7.0829133987 -0.1192310527 0 6.5912380219 0.030797852203 0
          6.572947979 0.076211936772 0 6.8391041756 -0.13088433444 0
          5.5509839058 0.093506261706 0 6.6171851158 0.012088249438 0
          5.787551403 -0.19618244469 0 0 0 0
          2.5907058716 0.031665220857 0 5.8337159157 -0.14813007414 0
          7.4263539314 6.2253311145e-016 0 5.8937015533 -0.092768408358 0
          2.0706160069 0.093880467117 0 7.1870422363 -0.10849777609 0
          7.3532094955 0.027159236372 0 5.9625730515 -0.050654351711 0
          6.615758419 -0.035684261471 0 3.8483827114 0.099711880088 0
          6.1368579865 0.054817788303 0 6.8422617912 -0.17961162329 0
          7.0656733513 0.018195524812 0 6.0327367783 -0.026403171942 0
          4.7873620987 0.082460232079 0 6.6266293526 0.0029931850731 0
          6.5899362564 -0.10119815916 0 7.2843313217 -0.07356441766 0
          5.5904574394 0.047583147883 0 6.0948719978 -0.023869615048 0
          7.4572405815 -2.5805621068e-015 0 6.8748755455 -0.18895767629 0
          5.2629323006 -0.21249166131 0 0 0 0
          7.3826889992 -0.016769027337 0 2.5260717869 0.026109920815 0
          5.2739677429 -0.18330261111 0 2.0389883518 0.076004341245 0
          5.2995438576 -0.14277116954 0 6.1390471458 -0.044153209776 0
          6.1876740456 -0.0043600215577 0 6.5519514084 -0.16331847012 0
          7.1097707748 -0.04434934631 0 5.3386998177 -0.1104458645 0
          3.8657348156 0.074321553111 0 5.3869943619 -0.088769286871 0
          4.8154807091 0.048755414784 0 7.3532094955 -0.027159236372 0
          6.9329218864 -0.15519435704 0 7.439250946 -8.3408917209e-016 0
          6.6768565178 -0.055997289717 0 6.1576628685 -0.083126343787 0
          6.5201277733 -0.19844597578 0 5.6419291496 0.0034795578104 0
          5.4381809235 -0.080216467381 0 7.3738365173 -0.048258364201 0
          4.634914875 -0.2133692354 0 0 0 0
          4.6326198578 -0.1925573945 0 2.4738247395 0.020154329017 0
          4.6413292885 -0.16478873789 0 6.1500020027 -0.12956666946 0
          7.1285176277 -0.083838962018 0 2.0184159279 0.056632410735 0
          6.240503788 -0.05053942278 0 5.485121727 -0.085506632924 0
          7.0022802353 -0.091207303107 0 4.6601333618 -0.14260044694 0
          3.8883383274 0.047809280455 0 7.3826889992 0.016769027337 0
          6.5106883049 -0.19210372865 0 7.3857927322 1.8957298279e-015 0
          4.8525753021 0.016307495534 0 4.6858258247 -0.12692660093 0
          6.7120432854 -0.089425481856 0 5.5205888748 -0.10281960666 0
          6.1250123978 -0.16684408486 0 7.3366107941 -0.062380559742 0
          5.6959118843 -0.031658355147 0 4.7146806717 -0.11914603412 0
          7.0656733513 -0.018195524812 0 7.1226301193 -0.094305664301 0
          0 0 0 5.5394153595 -0.12719096243 0
          3.8031005859 -0.20270623267 0 7.3738365173 0.048258364201 0
          6.5300459862 -0.14612919092 0 3.7776255608 -0.18828056753 0
          2.4348976612 0.014207125641 0 4.7425761223 -0.11959282309 0
          6.2820901871 -0.075199268758 0 3.7645263672 -0.17147856951 0
          2.0088808537 0.037009306252 0 6.098845005 -0.17945334315 0
          7.3158130646 -2.9971871203e-015 0 3.9146039486 0.022120092064 0
          3.7616539001 -0.15731886029 0 4.765434742 -0.12678901851 0
          3.7662696838 -0.14724825323 0 4.8929915428 -0.011345083825 0
          6.7246031761 -0.091310068965 0 5.5414748192 -0.15035638213 0
          7.2856063843 -0.057649724185 0 6.572947979 -0.076211936772 0
          7.1097707748 0.04434934631 0 3.7760915756 -0.14185479283 0
          5.7409381866 -0.052332926542 0 6.0876960754 -0.16052357852 0
          7.3366107941 0.062380559742 0 7.0975122452 -0.074070468545 0
          4.7798633575 -0.1378608793 0 0 0 0
          2.9391784668 -0.15047205985 0 3.7884979248 -0.14140614867 0
          2.4092969894 0.0086712632328 0 6.3003554344 -0.073066316545 0
          5.5331602097 -0.16276535392 0 2.8749494553 -0.13981994987 0
          7.2498455048 -8.7043223242e-015 0 2.8018498421 -0.13255868852 0
          2.0097126961 0.018439892679 0 3.9421494007 -0.00089838239364 0
          2.7321116924 -0.12478790432 0 4.7843322754 -0.14868269861 0
          7.2370223999 -0.034483600408 0 6.6266293526 -0.0029931850731 0
          6.7110314369 -0.05974258855 0 3.8010129929 -0.14472065866 0
          7.1285176277 0.083838962018 0 2.6653878689 -0.12019529194 0
          6.1006374359 -0.11470979452 0 4.92927742 -0.031180189922 0
          7.2856063843 0.057649724185 0 5.5254569054 -0.15737044811 0
          5.7649302483 -0.054605901241 0 2.6014206409 -0.11836928129 0
          7.0616364479 -0.024895951152 0 3.8116443157 -0.14976616204 0
          4.7803430557 -0.15453155339 0 7.2079906464 -1.0272935016e-014 0
          2.5387852192 -0.11949253827 0 6.2859778404 -0.042209967971 0
          3.8064920902 -0.043356906623 0 0 0 0
          3.7056229115 -0.050014454871 0 2.396017313 0.0039383410476 0
          6.6768565178 0.055997289717 0 2.0196270943 0.0022598314099 0
          3.6115283966 -0.043162565678 0 6.1368579865 -0.054817788303 0
          5.5292806625 -0.13277462125 0 7.1226301193 0.094305664301 0
          3.8192405701 -0.15400670469 0 3.5228204727 -0.039540480822 0
          3.9680547714 -0.019515456632 0 7.2068963051 0.0045933029614 0
          2.4760820866 -0.12275062501 0 6.672460556 0.0022267692257 0
          7.2370223999 0.034483600408 0 3.439227581 -0.037628155202 0
          4.7725977898 -0.15139564872 0 4.9529099464 -0.040781453252 0
          5.757045269 -0.03678311035 0 3.3580713272 -0.037085860968 0
          7.0258717537 0.046133715659 0 2.4124696255 -0.12680414319 0
          3.8238301277 -0.15486136079 0 7.2079381943 -1.0070042673e-014 0
          6.1876740456 0.0043600215577 0 6.7120432854 0.089425481856 0
          5.5509839058 -0.093506261706 0 6.2349977493 0.014027358033 0
          3.2771322727 -0.037717644125 0 7.0975122452 0.074070468545 0
          0 0 0 4.7676215172 -0.13738583028 0
          0 0 0 0 0 0
          2.3930206299 0.00036028519389 0 0 0 0
          2.0367929935 -0.010292693041 0 2.347987175 -0.13003015518 0
          7.2092022896 0.053085155785 0 0 0 0
          3.98914814 -0.032303374261 0 3.1944718361 -0.039153255522 0
          7.2068963051 -0.0045933029614 0 6.6161499023 0.083634734154 0
          3.826728344 -0.1502802223 0 0 0 0
          4.9555435181 -0.03890792653 0 6.240503788 0.05053942278 0
          5.5904574394 -0.047583147883 0 2.283664465 -0.13081611693 0
          7.2609820366 -7.220277402e-015 0 3.108912468 -0.040866523981 0
          5.7108130455 -0.0011567986803 0 7.002840519 0.12370151281 0
          4.77140522 -0.11337345839 0 6.7246031761 0.091310068965 0
          0 0 0 7.0616364479 0.024895951152 0
          3.8302135468 -0.13924480975 0 0 0 0
          6.1523957253 0.084314912558 0 0 0 0
          2.3973476887 -0.0018005744787 0 3.0202560425 -0.04228272289 0
          7.2524485588 0.098903410137 0 2.0590183735 -0.018306341022 0
          2.2213895321 -0.12790241838 0 7.2092022896 -0.053085155785 0
          6.556555748 0.16362482309 0 0 0 0
          5.6419291496 -0.0034795578104 0 4.0024657249 -0.038499809802 0
          6.2820901871 0.075199268758 0 4.7873620987 -0.082460232079 0
          4.9311757088 -0.026435438544 0 6.7110314369 0.05974258855 0
          3.8367948532 -0.12196981162 0 7.3658823967 -2.8948729519e-015 0
          2.9293968678 -0.042850829661 0 0 0 0
          7.0047602654 0.18428404629 0 5.6281986237 0.044319625944 0