<?xml version="1.0"?>
<VTKFile type="PolyData" version="0.1" byte_order="LittleEndian" compressor="vtkZLibDataCompressor">
  <PolyData>
    <Piece NumberOfPoints="1071" NumberOfVerts="0" NumberOfLines="0" NumberOfStrips="0" NumberOfPolys="2000">
      <PointData>
        <DataArray type="Float32" Name="PRESSURE" format="ascii" RangeMin="-5.5593733788" RangeMax="4.5748472214">
          0 -0.047514557838 0 -0.092602789402 0 -0.14132751524
          -0.19143785536 -0.091429643333 -0.18941660225 0 -0.23774252832 -0.28407874703
          -0.10167883337 -0.19003160298 -0.2821008563 0 -0.33455407619 -0.37892901897
          -0.11812654883 -0.27186098695 -0.37580573559 -0.20547513664 -0.35693672299 0
          -0.43654215336 -0.28219312429 -0.11493605375 -0.48087498546 -0.47694227099 -0.19714233279
          -0.36257880926 -0.45332384109 -0.26643994451 -0.54771119356 0 -0.10571267456
          -0.59364956617 -0.18128204346 -0.59056299925 -0.34043359756 -0.45734921098 -0.56748080254
          -0.24736586213 -0.67013728619 0 -0.43260937929 -0.71849668026 -0.098760642111
          -0.32150691748 -0.57401812077 -0.71841877699 -0.17173719406 -0.70128452778 -0.24120335281
          -0.41778409481 -0.55163782835 0 -0.80275171995 -0.32079574466 -0.8534373641
          -0.091526500881 -0.71406507492 -0.85814142227 -0.16646024585 -0.54448014498 -0.24147313833
          -0.85095643997 -0.69840508699 -0.42246833444 -0.32504734397 -0.87171918154 0
          -0.94142282009 -0.99343985319 -0.079528898001 -0.5536570549 -1.0035817623 -0.700766325
          -0.15898525715 -0.42729264498 -0.86458462477 -1.0076764822 -0.23738636076 -1.0350023508
          -0.32156968117 -0.71301430464 0 -0.55631780624 -1.0797822475 -0.87510424852
          -1.1314243078 -0.090153619647 -1.146235466 -0.17284594476 -1.0343725681 -0.42210805416
          -1.1598843336 -0.24820631742 -0.71166670322 -0.88734221458 -0.32329472899 -1.1891930103
          -1.0478494167 -0.54877209663 -1.2106183767 0 -1.2598223686 -0.079528898001
          -1.277361989 -1.189568162 -0.15898525715 -0.41277357936 -0.87940877676 -0.23738636076
          -1.0546094179 -1.296489954 -0.70124971867 -0.53119850159 -1.1982417107 -0.32156968117
          -1.3212902546 0 -1.3274127245 -0.091526500881 -1.0366811752 -1.3721779585
          -0.86430025101 -1.315628171 -0.42210805416 -0.16646024585 -1.389991045 -1.1932837963
          -0.680318892 -0.24147313833 -1.4095925093 -1.3120342493 -0.54877209663 -0.32504734397
          -1.4233644009 -1.0150045156 -1.1634943485 -0.8441234231 0 -1.4255381823
          -0.42729264498 -1.4055504799 -1.2913286686 -0.098760642111 -1.4642778635 -0.70124971867
          -1.4801191092 -0.17173719406 -0.24120335281 -1.495703578 -0.55631780624 -1.3851898909
          -0.99832713604 -1.1357353926 -1.2514500618 -1.4935810566 -0.86430025101 -0.32079574466
          -1.3486478329 -0.71166670322 -1.4601964951 -0.42246833444 0 -1.5028297901
          -1.5345697403 -0.10571267456 -1.1245901585 -0.18128204346 -1.5468931198 -1.0150045156
          -1.22108078 -0.24736586213 -0.5536570549 -1.5554417372 -1.4225487709 -0.87940877676
          -1.3037334681 -0.32150691748 -1.5352193117 -1.3735113144 -0.71301430464 -1.1357353926
          -1.4861348867 -0.41778409481 -1.2170467377 -1.0366811752 0 -1.5595144033
          -1.2756673098 -1.5839403868 -0.11493605375 -1.5920571089 -0.19714233279 -0.54448014498
          -1.4341014624 -0.88734221458 -1.3297982216 -0.26643994451 -1.5923911333 -0.34043359756
          -1.5549045801 -1.22108078 -1.1634943485 -1.2793741226 -1.3777484894 -0.700766325
          -1.0546094179 -1.4930888414 -0.43260937929 -1.3082206249 0 -1.597687602
          -0.11812654883 -1.6151037216 -0.20547513664 -0.87510424852 -1.3406015635 -1.6191053391
          -1.4319648743 -0.55163782835 -1.2514500618 -0.28219312429 -1.6118828058 -1.2756673098
          -1.1932837963 -1.3184229136 -1.5610649586 -0.36257880926 -1.3741627932 -0.69840508699
          -1.0478494167 -1.3273713589 -1.4922299385 -0.45734921098 -1.3037334681 -1.3470600843
          -1.6205687523 -0.86458462477 0 -1.3082206249 -1.2913286686 -0.10167883337
          -1.6318302155 -0.57401812077 -1.4291188717 -0.19003160298 -1.6324261427 -1.1982417107
          -1.3401092291 -1.6200137138 -0.27186098695 -0.71406507492 -0.35693672299 -1.5627776384
          -1.3763364553 -1.0343725681 -1.3411859274 -1.3486478329 -1.3297982216 -0.45332384109
          -1.4950909615 -1.3120342493 -1.3273713589 -1.3610436916 -0.87171918154 -1.631703496
          0 -0.56748080254 -1.6381326914 -1.438880682 -1.189568162 -0.091429643333
          -1.3499530554 -0.18941660225 -1.6364632845 -1.622718811 -0.2821008563 -1.0350023508
          -1.3595153093 -1.3735113144 -1.3987419605 -0.70128452778 -1.3406015635 -0.37580573559
          -1.3851898909 -1.5684560537 -1.3411859274 -1.315628171 -1.5119880438 -0.47694227099
          -1.3961496353 -0.85095643997 -1.1891930103 -1.3573228121 -0.59056299925 -1.4731523991
          0 -1.6342161894 -0.092602789402 -1.637463212 -1.3777484894 -1.63481462
          -0.19143785536 -1.4225487709 -1.4055504799 -1.3470600843 -1.0076764822 -0.28407874703
          -1.6245727539 -1.3956561089 -0.71841877699 -1.4541703463 -1.3595153093 -0.37892901897
          -1.3212902546 -1.5838294029 -1.5490918159 -0.48087498546 -1.4643243551 -0.85814142227
          -1.1598843336 -1.3783977032 -1.4341014624 -1.3741627932 -1.4601964951 -1.5379680395
          -0.59364956617 -1.3610436916 -1.6302253008 -1.4233644009 0 -0.047514557838
          -1.6320420504 -0.14132751524 -1.6293594837 -1.0035817623 -1.4621224403 -0.23774252832
          -1.6273863316 -0.71849668026 -1.3956561089 -1.5466603041 -1.296489954 -0.33455407619
          -1.6095064878 -1.4319648743 -1.4861348867 -1.146235466 -1.4306851625 -0.8534373641
          -1.6046555042 -1.5666663647 -1.4935810566 -1.3763364553 -0.43654215336 -1.3961496353
          -1.4095925093 -0.54771119356 -1.6273602247 -1.620609045 -1.6225811243 -0.99343985319
          -1.559394598 -1.6198226213 -1.277361989 -1.4621224403 -1.6630512476 -0.67013728619
          -1.4930888414 -1.6293303967 -1.4291188717 -1.5352193117 -1.6395280361 -1.3987419605
          -1.495703578 -1.518632412 -1.1314243078 -0.80275171995 -1.6845011711 -1.666729331
          -1.389991045 -1.4643243551 -1.7203317881 -1.6670286655 -0.94142282009 -1.4922299385
          -1.5549045801 -1.559394598 -1.2598223686 -1.6053375006 -1.6087012291 -1.5554417372
          -1.438880682 -1.6043094397 -1.7719384432 -1.4541703463 -1.6255856752 -1.4801191092
          -1.66258955 -1.6233007908 -1.0797822475 -1.3721779585 -1.7824656963 -1.5666663647
          -1.7153705359 -1.5610649586 -1.5923911333 -1.4950909615 -1.7864929438 -1.4731523991
          -1.5468931198 -1.6670286655 -1.2106183767 -1.750469327 -1.5844419003 -1.4642778635
          -1.5466603041 -1.5901117325 -1.5809772015 -1.8362641335 -1.6108813286 -1.7108347416
          -1.3274127245 -1.6845011711 -1.6663980484 -1.5627776384 -1.6118828058 -1.8270903826
          -1.5920571089 -1.5119880438 -1.7302730083 -1.5379680395 -1.5345697403 -1.750469327
          -1.8000335693 -1.7828536034 -1.4255381823 -1.6630512476 -1.5593962669 -1.5682110786
          -1.8334361315 -1.6200137138 -1.5503212214 -1.5684560537 -1.6191053391 -1.7555792332
          -1.58306849 -1.7824656963 -1.5490918159 -1.5839403868 -1.6436165571 -1.8076659441
          -1.6273602247 -1.5028297901 -1.7007650137 -1.7828536034 -1.7719384432 -1.7631204128
          -1.7537420988 -1.6324261427 -1.622718811 -1.5838294029 -1.6151037216 -1.7681950331
          -1.5343973637 -1.5595144033 -1.6046555042 -1.5474531651 -1.8270903826 -1.7560952902
          -1.5170710087 -1.5461043119 -1.7203317881 -1.7417811155 -1.5967415571 -1.6364632845
          -1.7631204128 -1.6328113079 -1.6245727539 -1.6318302155 -1.8362641335 -1.6095064878
          -1.597687602 -1.7136622667 -1.6639304161 -1.666729331 -1.8076659441 -1.669439435
          -1.5169696808 -1.7295058966 -1.535844326 -1.7864929438 -1.4908078909 -1.5110992193
          -1.63481462 -1.6381326914 -1.6622159481 -1.6273863316 -1.6205687523 -1.5398262739
          -1.6395280361 -1.7136622667 -1.8334361315 -1.5493448973 -1.6615103483 -1.7153705359
          -1.5643920898 -1.7417811155 -1.637463212 -1.6293594837 -1.631703496 -1.5758520365
          -1.6933838129 -1.8000335693 -1.5175085068 -1.6293303967 -1.5442498922 -1.4849567413
          -1.4949817657 -1.5988688469 -1.66258955 -1.4964141846 -1.7681950331 -1.6615103483
          -1.484154582 -1.7302730083 -1.6234419346 -1.6320420504 -1.6342161894 -1.6198226213
          -1.4947298765 -1.6622159481 -1.7537420988 -1.6255856752 -1.6573621035 -1.5223010778
          -1.5477036238 -1.5845654011 -1.6663980484 -1.5143435001 -1.5716478825 -1.5170994997
          -1.669439435 -1.6234419346 -1.4941495657 -1.6302253008 -1.7007650137 -1.6225811243
          -1.6043094397 -1.4722297192 -1.6089363098 -1.6108813286 -1.5988688469 -1.4893616438
          -1.6639304161 -1.6325236559 -1.6436165571 -1.5339523554 -1.620609045 -1.6180955172
          -1.667093277 -1.5758520365 -1.5918394327 -1.6087012291 -1.5950753689 -1.6328113079
          -1.6089363098 -1.5945140123 -1.5809772015 -1.5572500229 -1.58306849 -1.6310817003
          -1.5399029255 -1.5643920898 -1.5716478825 -1.5697244406 -1.5967415571 -1.6403685808
          -1.6053375006 -1.5901117325 -1.6244595051 -1.5223010778 -1.7352319956 -1.5503212214
          -1.5493448973 -1.7976412773 -1.7248256207 -1.6310817003 -1.6806254387 -1.7371686697
          -1.5461043119 -1.6991486549 -1.7053596973 -1.4947298765 -1.6976624727 -1.5950753689
          -1.5844419003 -1.5398262739 -1.7395271063 -1.5682110786 -1.7023997307 -1.7929894924
          -1.5170710087 -1.5339523554 -1.484154582 -1.8990069628 -1.7053596973 -1.9749279022
          -1.8303085566 -1.9123045206 -1.5110992193 -1.9444038868 -1.5593962669 -1.918282032
          -1.4893616438 -1.8367578983 -1.4964141846 -1.6806254387 -1.9378614426 -1.5474531651
          -1.9843451977 -1.8217167854 -1.4908078909 -1.4722297192 -2.0234355927 -1.6244595051
          -1.4949817657 -1.8367578983 -2.1007139683 -2.031870842 -2.1887688637 -1.5343973637
          -2.143173933 -2.2035329342 -1.5697244406 -1.535844326 -2.1979553699 -1.4941495657
          -2.0137207508 -1.8303085566 -2.2370753288 -1.4849567413 -2.2758789063 -1.9811961651
          -1.5399029255 -1.7929894924 -2.2884066105 -1.5170994997 -1.5169696808 -2.0137207508
          -2.2612888813 -2.3221831322 -1.5442498922 -2.4192643166 -2.3954792023 -1.7395271063
          -1.5572500229 -2.4893753529 -2.031870842 -2.2132658958 -2.5073056221 -1.5143435001
          -2.5582699776 -2.156845808 -1.6976624727 -2.5743939877 -1.5175085068 -2.0234355927
          -1.5945140123 -2.5501029491 -1.5845654011 -2.2132658958 -2.483784914 -1.6991486549
          -2.5363080502 -2.6371889114 -1.9843451977 -2.6362905502 -1.5918394327 -2.7632157803
          -2.2612888813 -2.4042551517 -2.7998816967 -2.8482506275 -1.5477036238 -1.9378614426
          -2.3240418434 -1.7371686697 -2.8249204159 -2.2884066105 -1.667093277 -2.7557928562
          -2.4042551517 -1.918282032 -2.2758789063 -2.6515359879 -1.7248256207 -2.7095890045
          -2.8064200878 -2.8233335018 -2.483784914 -2.9729120731 -2.5453031063 -3.0128755569
          -1.6180955172 -2.2370753288 -1.9444038868 -3.0371451378 -2.4503924847 -2.5501029491
          -1.7976412773 -2.9596841335 -2.8447954655 -2.5453031063 -2.1979553699 -1.9123045206
          -2.5743939877 -2.7133607864 -2.8077199459 -2.8900642395 -2.9116642475 -1.7352319956
          -2.6515359879 -3.0604214668 -2.591881752 -3.0779457092 -2.2035329342 -2.5582699776
          -3.0562272072 -1.9749279022 -2.7557928562 -2.4965920448 -2.924236536 -2.7798345089
          -2.5073056221 -2.591881752 -2.143173933 -2.8249204159 -2.6436159611 -1.8990069628
          -2.8047084808 -2.7133607864 -2.861294508 -2.8679831028 -2.5209395885 -2.9819893837
          -2.4893753529 -2.8482506275 -2.9504759312 -2.1887688637 -2.8761739731 -2.8447954655
          -2.4409015179 -2.7162334919 -2.7998816967 -2.3954792023 -2.5209395885 -2.578766346
          -2.9596841335 -2.1007139683 -2.4645760059 -2.6436159611 -2.6936953068 -2.7632157803
          -2.7165038586 -2.6891896725 -2.3527138233 -3.0371451378 -2.4192643166 -2.7358677387
          -2.6443219185 -2.7798345089 -2.3060789108 -2.5379149914 -2.3972301483 -2.6362905502
          -3.0128755569 -2.3221831322 -2.3527138233 -2.924236536 -2.3067946434 -2.233268261
          -2.4645760059 -2.9729120731 -2.6371889114 -3.0562272072 -2.4945416451 -2.4837741852
          -2.1448605061 -2.4141321182 -2.3796625137 -2.2436499596 -2.578766346 -2.1520354748
          -2.1440210342 -2.8233335018 -3.0779457092 -2.5363080502 -2.0612545013 -2.1448605061
          -2.7162334919 -2.0355262756 -2.0080361366 -3.0604214668 -2.8064200878 -2.233268261
          -2.8761739731 -2.2521154881 -2.2184414864 -1.9579939842 -2.116486311 -2.0178203583
          -2.3067946434 -1.8743531704 -2.9116642475 -2.0181601048 -2.7095890045 -1.8128094673
          -2.9504759312 -1.7900850773 -2.3972301483 -1.9579939842 -1.811309576 -2.8900642395
          -2.9819893837 -1.8206115961 -2.0080361366 -2.5379149914 -1.8045415878 -2.0223701
          -1.9833194017 -1.8763046265 -1.7568459511 -2.0355262756 -2.8679831028 -2.8077199459
          -1.6455920935 -2.6443219185 -1.8595241308 -1.6221449375 -1.618879199 -2.0612545013
          -1.8045415878 -1.6426411867 -2.861294508 -2.7358677387 -1.8206115961 -1.6619597673
          -2.1440210342 -1.6471385956 -1.8503097296 -1.8216958046 -2.6891896725 -1.7423559427
          -1.811309576 -2.8047084808 -1.6513448954 -2.2436499596 -1.5901371241 -1.6213636398
          -1.5660146475 -1.7900850773 -1.5241025686 -1.6471385956 -2.7165038586 -2.3796625137
          -1.5189274549 -1.8128094673 -1.6619597673 -1.5401170254 -2.6936953068 -1.5233128071
          -2.4141321182 -1.7509642839 -1.6426411867 -1.7381911278 -1.7064341307 -1.8743531704
          -1.6723774672 -1.4291372299 -1.6395128965 -1.5606029034 -1.618879199 -2.4837741852
          -1.4624116421 -1.5233128071 -2.0178203583 -1.4730013609 -1.6221449375 -1.5401170254
          -1.5454685688 -2.4945416451 -2.116486311 -1.5485990047 -1.5189274549 -1.7065787315
          -1.6455920935 -1.6997233629 -1.7055373192 -1.7182260752 -1.4588700533 -1.6674849987
          -1.5241025686 -1.5131393671 -2.2184414864 -1.5485990047 -1.7568459511 -1.4219670296
          -1.5489934683 -1.5660146475 -1.5454685688 -2.2521154881 -1.6829378605 -1.8763046265
          -1.6619887352 -1.4730013609 -1.5901371241 -1.688775897 -1.6614236832 -1.6528192759
          -1.6694082022 -1.6175063848 -1.5805933475 -1.9833194017 -1.4624116421 -1.3959969282
          -1.6513448954 -1.6619887352 -1.4108637571 -1.5606029034 -1.667791605 -1.6829378605
          -2.0223701 -1.7423559427 -1.7663909197 -1.5489934683 -1.6395128965 -1.7029212713
          -1.705272913 -1.6163918972 -1.4822030067 -1.7139056921 -1.4310994148 -1.8216958046
          -1.3465204239 -1.4219670296 -1.6723774672 -1.2590851784 -1.7029212713 -1.4059313536
          -1.5131393671 -1.8503097296 -1.645008564 -1.7663909197 -1.7064341307 -1.6789361238
          -1.6674849987 -1.667791605 -1.6692985296 -1.8586372137 -1.659920454 -1.7381911278
          -1.1798385382 -1.6879372597 -0.86106437445 -1.4108637571 -0.90261816978 -1.7182260752
          -1.1588555574 -1.6692985296 -1.3670903444 -1.7509642839 -1.3959969282 -1.4594634771
          -1.7055373192 -1.6789361238 -1.5728416443 -1.5805933475 -1.645008564 -1.6357216835
          -1.6997233629 -2.3956131935 -2.1123352051 -1.1249754429 -1.6269803047 -1.4059313536
          -0.1765705049 -1.6694082022 -0.27380990982 -1.0733377934 -1.6357216835 -1.7065787315
          -1.3307915926 -1.2590851784 -1.6528192759 -1.2263345718 -1.5728416443 -1.4774097204
          -1.3465204239 -1.4594634771 -1.6080869436 -1.6614236832 -3.6610398293 -3.9031999111
          -1.6318372488 -1.3670903444 -2.8497514725 -1.4310994148 0.96131312847 2.7719774246
          -1.6080869436 -1.688775897 0.10679454356 -1.1588555574 -2.3690886497 -1.4822030067
          -1.4774097204 -1.8094639778 -1.4724018574 -0.90261816978 -1.2263345718 -1.6163918972
          -1.5445187092 -0.86106437445 -5.4083003998 -1.3307915926 -5.5593733788 -1.5654511452
          -3.5959954262 2.4123580456 4.5748472214 -1.705272913 -1.5445187092 0.7944381237
          -1.0733377934 -1.1798385382 -2.769931078 -1.4724018574 -2.4297788143 -0.27380990982
          -1.6774559021 -1.8094639778 -1.659920454 -1.5509566069 -0.1765705049 -2.3690886497
          -1.541280508 -1.8586372137 -1.5509566069 0.10679454356 -1.1249754429 -1.6774559021
          2.7719774246 -2.1123352051 -2.4297788143 0.96131312847 -2.769931078 -2.3956131935
          -2.8497514725 0.7944381237 4.5748472214 -3.9031999111 2.4123580456 -3.6610398293
          -3.5959954262 -5.5593733788 -5.4083003998
        </DataArray>
        <DataArray type="Float32" Name="VELOCITY" NumberOfComponents="3" ComponentName0="X-VELOCITY" ComponentName1="Y-VELOCITY" ComponentName2="Z-VELOCITY" format="ascii" RangeMin="0" RangeMax="7.967689991">
          0 0 0 0 0 0
          3.695966959 0.040891744196 0 3.6022281647 0.04625857994 0
          2.8330142498 0.13995076716 0 0 0 0
          3.5157625675 0.040194433182 0 2.7790324688 0.12621699274 0
          2.7177963257 0.12076290697 0 3.7869720459 0.18141397834 0
          0 0 0 3.4324686527 0.038172714412 0
          3.7731935978 0.16204059124 0 3.7727749348 0.14863242209 0
          2.6570973396 0.1177412346 0 4.6373300552 0.17913629115 0
          0 0 0 3.3513138294 0.037771154195 0
          4.6552352905 0.1505266875 0 3.7792954445 0.14267513156 0
          2.5957589149 0.11799905449 0 4.6804180145 0.13011592627 0
          3.7891218662 0.14133609831 0 5.2831873894 0.1540402025 0
          0 0 0 4.708861351 0.12127695233 0
          5.3256311417 0.11741039902 0 3.2697339058 0.038508161902 0
          2.533623457 0.12054757029 0 5.3732123375 0.092832945287 0
          4.7364735603 0.12047103047 0 3.7995421886 0.14395700395 0
          5.4217581749 0.08382999897 0 0 0 0
          5.8676176071 0.1030716747 0 5.9367771149 0.057999275625 0
          3.1859958172 0.039895553142 0 6.0052380562 0.033101283014 0
          2.4700791836 0.12442094088 0 5.4656133652 0.088063403964 0
          4.7590584755 0.12673607469 0 3.8085067272 0.14876635373 0
          6.064997673 0.030593307689 0 0 0 0
          6.4477734566 0.028655100614 0 5.4983663559 0.10419397056 0
          3.0993864536 0.041262660176 0 6.5110220909 -0.010279722512 0
          6.1075134277 0.049179203808 0 4.7733926773 0.13721325994 0
          2.4052548409 0.12793946266 0 6.5603075027 -0.023098338395 0
          3.8149082661 0.15323738754 0 6.5879602432 -0.0054718889296 0
          6.1263084412 0.085362419486 0 5.5155887604 0.12725935876 0
          6.8574900627 -0.028839051723 0 0 0 0
          6.5898795128 0.038861613721 0 3.0103669167 0.04203229025 0
          6.8767609596 -0.045807182789 0 4.7781410217 0.14784115553 0
          2.3401167393 0.12955351174 0 6.876958847 -0.037568833679 0
          6.120967865 0.12860862911 0 6.8617696762 0.0010232495843 0
          3.818769455 0.1549243927 0 5.5174336433 0.14940227568 0
          6.5685772896 0.099849998951 0 6.8396778107 0.061164185405 0
          4.7747797966 0.15418359637 0 6.980840683 -0.035730198026 0
          0 0 0 2.9203968048 0.04179340601 0
          6.9558811188 -0.034303996712 0 6.5351223946 0.15803961456 0
          2.2763881683 0.12807640433 0 6.0996809006 0.16354931891 0
          6.9278731346 -0.017646811903 0 6.8234577179 0.12609906495 0
          5.5099563599 0.1617898345 0 3.8213083744 0.1519241333 0
          6.9126625061 0.016871772707 0 4.7677159309 0.15255236626 0
          6.9254546165 0.059939339757 0 6.5064001083 0.19151805341 0
          6.9527683258 5.847983654e-015 0 6.8266324997 0.17284858227 0
          0 0 0 6.0772848129 0.17586840689 0
          2.8316473961 0.040346689522 0 6.9150094986 7.6191392876e-015 0
          2.2162334919 0.12290497869 0 6.8916926384 6.951468108e-015 0
          5.5034089088 0.1579708457 0 6.9747924805 0.097656309605 0
          3.8246004581 0.14332668483 0 6.9050064087 4.1318072349e-015 0
          6.8568758965 0.18289765716 0 6.4978461266 0.18652278185 0
          6.9657735825 2.0650080919e-015 0 4.7630081177 0.14127218723 0
          6.0689125061 0.15913781524 0 7.0575790405 0.11553633213 0
          0 0 0 6.980840683 0.035730198026 0
          2.7466108799 0.037716146559 0 6.9558811188 0.034303996712 0
          2.1618266106 0.11407102644 0 5.5080180168 0.13671529293 0
          6.9278731346 0.017646811903 0 7.0694050789 1.681112749e-015 0
          6.9112443924 0.15210229158 0 6.9126625061 -0.016871772707 0
          6.5162034035 0.1443708092 0 3.8308858871 0.12936359644 0
          7.1578774452 0.10622921586 0 7.1947960854 1.3599011265e-015 0
          6.0833439827 0.11759640276 0 6.9254546165 -0.059939339757 0
          4.7662215233 0.12120193988 0 6.8574900627 0.028839051723 0
          0 0 0 6.8767609596 0.045807182789 0
          6.9772191048 0.09215233475 0 2.6677207947 0.034092333168 0
          7.252597332 0.073453359306 0 5.5298418999 0.10222651064 0
          6.9747924805 -0.097656309605 0 6.876958847 0.037568833679 0
          2.1149656773 0.1020976007 0 6.5573544502 0.079562537372 0
          7.3118019104 7.5690477708e-016 0 6.8617696762 -0.0010232495843 0
          3.8418076038 0.11116907001 0 6.1202044487 0.063125044107 0
          7.0575790405 -0.11553633213 0 6.8396778107 -0.061164185405 0
          4.7805762291 0.095167160034 0 7.3210458755 0.02917284891 0
          7.03885746 0.023147972301 0 7.393661499 1.2960303954e-015 0
          6.4477734566 -0.028655100614 0 0 0 0
          6.8234577179 -0.12609906495 0 5.5689601898 0.061842497438 0
          6.6097807884 0.011593070813 0 6.5110220909 0.010279722512 0
          2.597076416 0.029742095619 0 7.1578774452 -0.10622921586 0
          2.0768578053 0.087756812572 0 6.5603075027 0.023098338395 0
          6.5879602432 0.0054718889296 0 3.8579292297 0.090301476419 0
          6.8266324997 -0.17284858227 0 6.1715970039 0.0094846859574 0
          7.4266839027 2.0159981303e-015 0 7.3523592949 -0.013037831523 0
          7.0834460258 -0.035968910903 0 4.8061971664 0.066761516035 0
          7.252597332 -0.073453359306 0 6.5898795128 -0.038861613721 0
          6.6600723267 -0.042802277952 0 6.8568758965 -0.18289765716 0
          5.6201534271 0.023168848827 0 6.5685772896 -0.099849998951 0
          5.8676176071 -0.1030716747 0 0 0 0
          2.5363035202 0.024931143969 0 5.9367771149 -0.057999275625 0
          7.4124588966 1.0907114089e-015 0 6.0052380562 -0.033101283014 0
          2.0480904579 0.071859389544 0 7.3210458755 -0.02917284891 0
          7.3472661972 -0.043188914657 0 6.064997673 -0.030593307689 0
          6.5351223946 -0.15803961456 0 3.8786644936 0.06829521805 0
          6.2256984711 -0.031995370984 0 6.9112443924 -0.15210229158 0
          7.1048498154 -0.072731211782 0 6.1075134277 -0.049179203808 0
          4.8403701782 0.039317421615 0 6.6968693733 -0.072827152908 0
          6.5064001083 -0.19151805341 0 7.3523592949 0.013037831523 0
          5.6746826172 -0.0076147681102 0 6.1263084412 -0.085362419486 0
          7.3639631271 -2.7634267263e-016 0 6.9772191048 -0.09215233475 0
          5.2831873894 -0.1540402025 0 0 0 0
          7.315279007 -0.056188713759 0 2.4865100384 0.019890476018 0
          5.3256311417 -0.11741039902 0 2.0287282467 0.05516173318 0
          5.3732123375 -0.092832945287 0 6.120967865 -0.12860862911 0
          6.2697854042 -0.053685817868 0 6.4978461266 -0.18652278185 0
          7.1032605171 -0.081228762865 0 5.4217581749 -0.08382999897 0
          3.9024968147 0.046442233026 0 5.4656133652 -0.088063403964 0
          4.8781952858 0.015491169877 0 7.3472661972 0.043188914657 0
          7.03885746 -0.023147972301 0 7.2999773026 -4.8583400046e-015 0
          6.7123298645 -0.073014639318 0 6.0996809006 -0.16354931891 0
          6.5162034035 -0.1443708092 0 5.7218914032 -0.026045378298 0
          5.4983663559 -0.10419397056 0 7.2706050873 -0.050539020449 0
          4.6373300552 -0.17913629115 0 0 0 0
          4.6552352905 -0.1505266875 0 2.4482674599 0.014826412313 0
          4.6804180145 -0.13011592627 0 6.0772848129 -0.17586840689 0
          7.0834035873 -0.060098085552 0 2.0184307098 0.038387600332 0
          6.2920417786 -0.051204327494 0 5.5155887604 -0.12725935876 0
          7.0834460258 0.035968910903 0 4.708861351 -0.12127695233 0
          3.9272801876 0.025807257742 0 7.315279007 0.056188713759 0
          6.5573544502 -0.079562537372 0 7.2409596443 -1.0910821976e-014 0
          4.9131994247 -0.0026875666808 0 4.7364735603 -0.12047103047 0
          6.7024402618 -0.042110055685 0 5.5174336433 -0.14940227568 0
          6.0689125061 -0.15913781524 0 7.2290658951 -0.026989154518 0
          5.7504806519 -0.029230998829 0 4.7590584755 -0.12673607469 0
          7.1048498154 0.072731211782 0 7.0531368256 -0.011818783358 0
          0 0 0 5.5099563599 -0.1617898345 0
          3.7869720459 -0.18141397834 0 7.2706050873 0.050539020449 0
          6.6097807884 -0.011593070813 0 3.7731935978 -0.16204059124 0
          2.4215705395 0.0099492287263 0 4.7733926773 -0.13721325994 0
          6.2831549644 -0.023456031457 0 3.7727749348 -0.14863242209 0
          2.0165343285 0.022292234004 0 6.0833439827 -0.11759640276 0
          7.206618309 -1.1825048353e-014 0 3.9505119324 0.0073257177137 0
          3.7792954445 -0.14267513156 0 4.7781410217 -0.14784115553 0
          3.7891218662 -0.14133609831 0 4.9379725456 -0.0137680443 0
          6.6678061485 0.016122056171 0 5.5034089088 -0.1579708457 0
          7.2061247826 0.011243556626 0 6.6600723267 0.042802277952 0
          7.1032605171 0.081228762865 0 3.7995421886 -0.14395700395 0
          5.75020504 -0.01632142067 0 6.1202044487 -0.063125044107 0
          7.2290658951 0.026989154518 0 7.0228714943 0.055622912943 0
          4.7747797966 -0.15418359637 0 0 0 0
          2.8330142498 -0.13995076716 0 3.8085067272 -0.14876635373 0
          2.4057738781 0.0054922411218 0 6.238863945 0.025776321068 0
          5.5080180168 -0.13671529293 0 2.7790324688 -0.12621699274 0
          7.213467598 -1.1141672335e-014 0 2.7177963257 -0.12076290697 0
          2.022100687 0.0076863751747 0 3.9696178436 -0.0081805521622 0
          2.6570973396 -0.1177412346 0 4.7677159309 -0.15255236626 0
          7.2147297859 0.056941721588 0 6.6968693733 0.072827152908 0
          6.6152448654 0.090440377593 0 3.8149082661 -0.15323738754 0
          7.0834035873 0.060098085552 0 2.5957589149 -0.11799905449 0
          6.1715970039 -0.0094846859574 0 4.9452486038 -0.017173089087 0
          7.2061247826 -0.011243556626 0 5.5298418999 -0.10222651064 0
          5.7146897316 0.010213364847 0 2.533623457 -0.12054757029 0
          7.0047960281 0.1265809834 0 3.818769455 -0.1549243927 0
          4.7630081177 -0.14127218723 0 7.270711422 -1.139303021e-014 0
          2.4700791836 -0.12442094088 0 6.1633338928 0.08577080816 0
          3.695966959 -0.040891744196 0 0 0 0
          3.6022281647 -0.04625857994 0 2.399544239 0.0017094925279 0
          6.7123298645 0.073014639318 0 2.0339829922 -0.0046162861399 0
          3.5157625675 -0.040194433182 0 6.2256984711 0.031995370984 0
          5.5689601898 -0.061842497438 0 7.0531368256 0.011818783358 0
          3.8213083744 -0.1519241333 0 3.4324686527 -0.038172714412 0
          3.9823689461 -0.020117541775 0 7.2618498802 0.098004966974 0
          2.4052548409 -0.12793946266 0 6.5587191582 0.16097694635 0
          7.2147297859 -0.056941721588 0 3.3513138294 -0.037771154195 0
          4.7662215233 -0.12120193988 0 4.9297232628 -0.013747331686 0
          5.644973278 0.043501477689 0 3.2697339058 -0.038508161902 0
          7.0104494095 0.17878141999 0 2.3401167393 -0.12955351174 0
          3.8246004581 -0.14332668483 0 7.3747973442 -9.0195845991e-015 0
          6.2697854042 0.053685817868 0 6.7024402618 0.042110055685 0
          5.6201534271 -0.023168848827 0 6.0713448524 0.13904823363 0
          3.1859958172 -0.039895553142 0 7.0228714943 -0.055622912943 0
          0 0 0 4.7805762291 -0.095167160034 0
          0 0 0 0 0 0
          2.4008774757 -0.0011387615232 0 0 0 0
          2.0509493351 -0.013896023855 0 2.2763881683 -0.12807640433 0
          7.3441996574 0.11964794248 0 0 0 0
          3.9874408245 -0.028256343678 0 3.0993864536 -0.041262660176 0
          7.2618498802 -0.098004966974 0 6.517329216 0.20296731591 0
          3.8308858871 -0.12936359644 0 0 0 0
          4.8902540207 -0.006037321873 0 6.2920417786 0.051204327494 0
          5.6746826172 0.0076147681102 0 2.2162334919 -0.12290497869 0
          7.5058727264 -3.9156423092e-015 0 3.0103669167 -0.04203229025 0
          5.5519170761 0.072996787727 0 7.0463218689 0.19001540542 0
          4.8061971664 -0.066761516035 0 6.6678061485 -0.016122056171 0
          0 0 0 7.0047960281 -0.1265809834 0
          3.8418076038 -0.11116907001 0 0 0 0
          5.9865527153 0.16596981883 0 0 0 0
          2.4071903229 -0.0027953123208 0 2.9203968048 -0.04179340601 0
          7.4457421303 0.11020623893 0 2.0718359947 -0.01959660463 0
          2.1618266106 -0.11407102644 0 7.3441996574 -0.11964794248 0
          6.5094089508 0.19595453143 0 0 0 0
          5.7218914032 0.026045378298 0 3.9849390984 -0.032718833536 0
          6.2831549644 0.023456031457 0 4.8403701782 -0.039317421615 0
          4.8313875198 0.0022683644202 0 6.6152448654 -0.090440377593 0
          3.8579292297 -0.090301476419 0 7.6304273605 1.8997309204e-016 0
          2.8316473961 -0.040346689522 0 0 0 0
          7.109395504 0.14842738211 0 5.4552249908 0.087776295841 0
          2.1149656773 -0.1020976007 0 7.0104494095 -0.17878141999 0