<?xml version="1.0"?>
<VTKFile type="PolyData" version="0.1" byte_order="LittleEndian" compressor="vtkZLibDataCompressor">
  <PolyData>
    <Piece NumberOfPoints="1071" NumberOfVerts="0" NumberOfLines="0" NumberOfStrips="0" NumberOfPolys="2000">
      <PointData>
        <DataArray type="Float32" Name="PRESSURE" format="ascii" RangeMin="-10.833006859" RangeMax="0.00069363904186">
          0 0.00016688178584 0 -1.5401745259e-005 0 0.00019053762662
          -4.6401160944e-005 6.7908615165e-005 5.6979337387e-005 0 0.00017366300744 -6.5595915657e-005
          -5.5937380239e-005 -8.354322199e-005 7.5231018855e-006 0 0.00016080297064 -6.1458216805e-005
          2.3090280592e-005 -0.00010063597438 -6.1137470766e-005 3.5273658341e-006 -0.00011378546333 0
          0.00016958409105 -2.3293143386e-005 -1.8853248548e-005 -3.122468479e-005 -0.00014444258704 -4.4294018153e-005
          -5.1093633374e-005 -0.00012666010298 -6.7885877797e-005 0.00020816602046 0 -2.1001631467e-005
          2.3537271773e-005 -5.3702042351e-005 -0.00024863670114 -8.8412874902e-005 -7.9053235822e-005 -0.00014476885553
          -8.6949701654e-005 0.00027817735099 0 -0.00010555212793 9.7155374533e-005 -4.2917017709e-005
          -0.00011844688561 -0.00010981736705 -0.00039134419058 -8.80692387e-005 -0.00017811899306 -0.00013293071243
          -0.00014632151579 -0.00012047917699 0 0.00037636980414 -0.00017697332078 0.00017933796335
          -6.1515405832e-005 -0.00015068025095 -0.00060375890462 -0.00012234017777 -0.00016958537162 -0.00018429868214
          -0.00024405799923 -0.00013681910059 -0.00021833258506 -0.00024845715961 -0.00021596589067 0
          0.00049366301391 0.00025220468524 -7.8877426859e-005 -0.0002547991171 -0.0009353957139 -0.00018833549984
          -0.00015205034288 -0.00031402657623 -0.00016280043928 -0.00037145783426 -0.00022845444619 -0.00033105764305
          -0.00031038958696 -0.00028343274607 0 -0.00037906059879 0.00061142852064 -0.00020508482703
          0.00028419008595 -0.00012384189176 -0.0014624377945 -0.00023164282902 -0.00021514408581 -0.00039860984543
          -0.00060753710568 -0.00034914343269 -0.00043957543676 -0.00030083509046 -0.00048837414943 -0.00053944060346
          -0.00022775876278 -0.00049237551866 0.00069363904186 0 0.00021901185391 -7.8877426859e-005
          -0.0023012431338 -0.00032625172753 -0.00015205034288 -0.00065942818765 -0.0004886786337 -0.00022845444619
          -0.00030464160955 -0.0010291208746 -0.00058828276815 -0.0008739202749 -0.00027606659569 -0.00031038958696
          -0.00091498927213 0 0.00067228410626 -6.1515405832e-005 -0.00051606883062 -4.3520645704e-005
          -0.00067840580596 -0.00055747909937 -0.00039860984543 -0.00012234017777 -0.0036295112222 -0.00029791466659
          -0.0011460892856 -0.00018429869669 -0.0017613745295 -0.00039452352212 -0.00049237551866 -0.00024845715961
          -0.0015834100777 -0.00074771803338 -0.00050923053641 -0.0014931842452 0 0.00042140777805
          -0.00031402657623 -0.0010235246737 -0.00029999364051 -4.2917017709e-005 -0.00068036519224 -0.00058828276815
          -0.0057191192172 -8.80692387e-005 -0.00013293071243 -0.003009284148 -0.00037906062789 -0.00067828298779
          -0.0019349773647 -0.0007712864317 -0.00045961898286 -0.002759800991 -0.00067840580596 -0.00017697332078
          -0.00037096781307 -0.00043957543676 -0.0019369620131 -0.00021833258506 0 -0.00028797364212
          -0.0020005686674 -2.1001631467e-005 -0.0024914338719 -5.3702042351e-005 -0.0089869340882 -0.00074771803338
          -0.00071334460517 -8.6949701654e-005 -0.0002547991171 -0.0051109790802 -0.0013231162447 -0.0004886786337
          -0.00038130485336 -0.00011844688561 -0.0048145810142 -0.00066363991937 -0.00028343274607 -0.0007712864317
          -0.0036888066679 -0.00014632151579 -0.003176657483 -0.00051606883062 0 -0.0018640374765
          -0.00053450721316 -0.0045359660871 -1.8853248548e-005 -0.014073146507 -4.4294018153e-005 -0.00016958537162
          -0.0027197950985 -0.00030083509046 -0.00035794684663 -6.7885877797e-005 -0.0086280452088 -8.8412874902e-005
          -0.0083885584027 -0.00071334460517 -0.00050923053641 -0.0039867204614 -0.0015286649577 -0.00018833549984
          -0.00030464163865 -0.0069919587113 -0.00010555212793 -0.00022320655989 0 -0.0050179529935
          2.3090280592e-005 -0.0091838082299 3.5273662888e-006 -0.00020508482703 -0.00064972817199 -0.021960517392
          -0.0056273303926 -0.00012047917699 -0.00045961898286 -2.3293143386e-005 -0.014496325515 -0.00053450721316
          -0.00029791466659 -0.0048822863027 -0.014589642175 -5.1093633374e-005 -0.0037174383178 -0.00013681910059
          -0.00022775876278 0.00011139538401 -0.013129200786 -7.9053235822e-005 -0.00038130485336 -0.0019183112308
          -0.010954017751 -0.00016280043928 0 -0.00022320655989 -0.00029999364051 -5.5937380239e-005
          -0.017417268828 -0.00010981736705 -0.011478180066 -8.354322199e-005 -0.034150443971 -0.00027606662479
          -0.0057857208885 -0.024268623441 -0.00010063597438 -0.00015068025095 -0.00011378546333 -0.025314204395
          -0.0087511269376 -0.00021514408581 7.4361291809e-006 -0.00037096781307 -0.00035794687574 -0.00012666010298
          -0.024359039962 -0.00039452352212 0.00011139538401 -0.0056617502123 -0.00021596589067 -0.021637992933
          0 -0.00014476885553 -0.031567145139 -0.022879641503 -0.00032625172753 6.7908615165e-005
          -0.0066751795821 5.6979337387e-005 -0.052907388657 -0.040477994829 7.5231018855e-006 -0.00033105764305
          -0.0018574150745 -0.00066363991937 -0.019531935453 -0.00017811899306 -0.00064972817199 -6.1137470766e-005
          -0.00067828298779 -0.043727759272 7.4361264524e-006 -0.00055747909937 -0.044512748718 -0.00014444258704
          -0.014958530664 -0.00024405799923 -0.00053944060346 -0.0080037293956 -0.00024863670114 -0.044332362711
          0 -0.040128052235 -1.5401745259e-005 -0.05514152348 -0.0015286649577 -0.081559598446
          -4.6401160944e-005 -0.0013231162447 -0.0010235246737 -0.0019183112308 -0.00037145783426 -6.5595915657e-005
          -0.06711126864 -0.0086120292544 -0.00039134419058 -0.041187487543 -0.0018574150745 -6.1458224081e-005
          -0.00091498927213 -0.074867971241 -0.079692281783 -3.122468479e-005 -0.035477247089 -0.00060375890462
          -0.00060753710568 -0.011856407858 -0.0027197953314 -0.0037174383178 -0.0019369620131 -0.082974150777
          2.3537269954e-005 -0.0056617502123 -0.07089163363 -0.0015834101941 0 0.00016688178584
          -0.093080200255 0.00019053762662 -0.1247831583 -0.0009353957139 -0.026523940265 0.00017366300744
          -0.11006455123 9.7155374533e-005 -0.0086120292544 -0.081789247692 -0.0010291208746 0.00016080297064
          -0.12612621486 -0.0056273303926 -0.0036888066679 -0.0014624377945 -0.024092594162 0.00017933796335
          -0.13864047825 -0.076168216765 -0.002759800991 -0.0087511269376 0.00016958409105 -0.014958530664
          -0.0017613745295 0.00020816602046 -0.14863023162 -0.1199369356 -0.15174855292 0.00025220468524
          -0.065825484693 -0.18868885934 -0.0023012431338 -0.026523940265 -0.15184061229 0.00027817735099
          -0.0069919587113 -0.1772301048 -0.011478180066 -0.0048145810142 -0.20699615777 -0.019531935453
          -0.003009284148 -0.056374337524 0.00028419008595 0.00037636980414 -0.14807486534 -0.23181132972
          -0.0036295112222 -0.035477247089 -0.2517863512 -0.13881085813 0.00049366301391 -0.013129200786
          -0.0083885584027 -0.065825484693 0.00021901185391 -0.19450393319 -0.23842266202 -0.0051109790802
          -0.022879641503 -0.28041940928 -0.26087555289 -0.041187487543 -0.27763554454 -0.0057191192172
          -0.32718771696 -0.12461258471 0.00061142852064 -4.3520649342e-005 -0.25955429673 -0.076168216765
          -0.36797505617 -0.014589642175 -0.0086280452088 -0.024359039962 -0.39848953485 -0.044332362711
          -0.0089869340882 -0.13881085813 0.00069363904186 -0.25345242023 -0.30209565163 -0.00068036525045
          -0.081789247692 -0.36012008786 -0.40699383616 -0.41115969419 -0.41917601228 -0.24087905884
          0.00067228410626 -0.14807486534 -0.49270913005 -0.025314204395 -0.014496325515 -0.40955549479
          -0.014073146507 -0.044512748718 -0.54866701365 -0.082974150777 -0.0020005686674 -0.25345242023
          -0.58438324928 -0.40614825487 0.00042140777805 -0.15184061229 -0.44891229272 -0.5219835043
          -0.59340149164 -0.024268623441 -0.57351016998 -0.043727759272 -0.021960517392 -0.40328785777
          -0.60541474819 -0.25955429673 -0.079692281783 -0.0045359660871 -0.70154029131 -0.58616286516
          -0.14863023162 -0.00028797364212 -0.7644444108 -0.40614825487 -0.26087555289 -0.582493186
          -0.7945407033 -0.034150443971 -0.040477994829 -0.074867971241 -0.0091838082299 -0.79180419445
          -0.63824349642 -0.0018640374765 -0.13864047825 -0.72591006756 -0.40955549479 -0.59429788589
          -0.78152221441 -0.83349883556 -0.2517863512 -0.77528476715 -0.94308018684 -0.052907388657
          -0.582493186 -0.99919509888 -0.06711126864 -0.017417268828 -0.41115969419 -0.12612621486
          -0.0050179529935 -0.76740854979 -1.0139918327 -0.23181132972 -0.58616286516 -0.99734944105
          -0.8697078228 -0.78899741173 -0.97030138969 -0.39848953485 -1.0288512707 -1.0958468914
          -0.081559598446 -0.031567145139 -0.97164618969 -0.11006455123 -0.010954017751 -1.2049732208
          -0.20699615777 -0.76740854979 -0.59340149164 -1.2434728146 -0.9536537528 -0.36797505617
          -1.2426578999 -0.77528476715 -0.05514152348 -0.1247831583 -0.021637992933 -1.2175261974
          -0.96694797277 -0.58438324928 -1.1398667097 -0.1772301048 -1.2511949539 -1.3113633394
          -1.385892868 -1.1834055185 -0.32718771696 -1.4844361544 -0.79180419445 -0.9536537528
          -1.5066895485 -0.54866701365 -1.1482275724 -0.093080200255 -0.040128052235 -0.18868885934
          -1.5009758472 -0.97164618969 -0.7945407033 -0.27763554454 -1.1326186657 -1.4766225815
          -1.4436433315 -1.5638010502 -0.49270913005 -1.6253015995 -1.4360842705 -1.7034738064
          -0.99734944105 -1.1482275724 -1.7933996916 -0.07089163363 -0.7644444108 -0.15174855292
          -0.28041940928 -1.8143420219 -1.3840068579 -0.41917601228 -1.1834055185 -1.8200185299
          -1.0139918327 -1.3357497454 -0.70154029131 -1.8077538013 -0.1199369356 -1.7750383615
          -1.9027100801 -1.2175261974 -1.9673492908 -0.23842266202 -1.767287612 -0.99919509888
          -1.3840068579 -2.0531806946 -0.40699383616 -2.1482152939 -0.60541474819 -1.7079117298
          -2.1874997616 -1.2426578999 -1.4360842705 -2.2182452679 -0.94308018684 -1.6421630383
          -0.19450393319 -0.36012008786 -2.2259869576 -1.4766225815 -2.1260461807 -0.57351016998
          -1.2434728146 -2.2599301338 -2.3309345245 -1.7079117298 -2.1874485016 -2.4338686466
          -0.83349883556 -2.5483953953 -2.1251995564 -1.5009758472 -2.6166138649 -1.767287612
          -0.30209565163 -1.2049732208 -2.6723427773 -0.5219835043 -2.0584824085 -2.6910881996
          -0.78152221441 -1.8077538013 -1.5066895485 -2.484503746 -2.1251995564 -2.6221694946
          -2.6410341263 -2.7012102604 -1.0958468914 -2.8270483017 -0.44891229272 -2.9619307518
          -1.8200185299 -2.5679061413 -1.4844361544 -2.1874485016 -3.049738884 -0.72591006756
          -3.1089496613 -2.5089643002 -1.0288512707 -1.8143420219 -3.1122236252 -2.2259869576
          -1.385892868 -2.5679061413 -2.8333175182 -3.0344312191 -2.9704184532 -0.63824349642
          -3.0539796352 -3.1959421635 -2.2182452679 -0.97030138969 -3.3323991299 -1.7933996916
          -2.9445004463 -2.6410341263 -3.4112792015 -1.3113633394 -3.4415276051 -2.9005064964
          -2.1874997616 -2.6910881996 -3.4088053703 -1.7034738064 -0.8697078228 -2.9445004463
          -3.3080236912 -3.1532337666 -1.2511949539 -3.2839639187 -3.361925602 -2.6723427773
          -2.1482152939 -3.4994599819 -3.0344312191 -3.2122006416 -3.6065983772 -1.6253015995
          -3.6443333626 -3.1924505234 -2.6166138649 -3.6266539097 -1.1398667097 -3.1122236252
          -2.0531806946 -3.5654630661 -1.5638010502 -3.2122006416 -3.4709830284 -2.5483953953
          -3.4289104939 -3.5478477478 -3.1089496613 -3.6059439182 -1.9673492908 -3.7133426666
          -3.3080236912 -3.3923530579 -3.7649586201 -3.7450473309 -1.4436433315 -3.049738884
          -3.4004073143 -2.4338686466 -3.6888284683 -3.4088053703 -1.9027100801 -3.6300582886
          -3.3923530579 -2.9619307518 -3.4415276051 -3.5735068321 -2.3309345245 -3.6553993225
          -3.7599630356 -3.7852065563 -3.4709830284 -3.845192194 -3.5288767815 -3.8339054585
          -1.7750383615 -3.4112792015 -2.8270483017 -3.7638714314 -3.5516765118 -3.5654630661
          -2.2599301338 -3.6995787621 -3.6711409092 -3.5288767815 -3.3323991299 -2.7012102604
          -3.6266539097 -3.6613349915 -3.8413732052 -3.9336495399 -3.9199790955 -2.1260461807
          -3.5735068321 -3.9340150356 -3.6482653618 -3.8731672764 -3.1959421635 -3.6443333626
          -3.7788460255 -2.6221694946 -3.6300582886 -3.6607470512 -3.7369494438 -3.7415111065
          -3.6065983772 -3.6482653618 -3.0539796352 -3.6888284683 -3.7614290714 -2.484503746
          -4.0068736076 -3.6613349915 -4.093773365 -4.0453186035 -3.7658545971 -4.0345511436
          -3.4994599819 -3.7450473309 -3.9492809772 -2.9704184532 -3.8623166084 -3.6711409092
          -3.7565927505 -3.8534054756 -3.7649586201 -3.361925602 -3.7658545971 -3.8701078892
          -3.6995787621 -2.8333175182 -3.8964803219 -3.7614290714 -4.1758317947 -3.7133426666
          -4.2672843933 -4.1984148026 -3.9088256359 -3.7638714314 -3.2839639187 -4.1954789162
          -4.1117663383 -3.7415111065 -3.8942956924 -4.05585289 -4.0645337105 -3.6059439182
          -3.8339054585 -3.1532337666 -3.9088256359 -3.7369494438 -4.0683803558 -4.0846767426
          -3.8964803219 -3.845192194 -3.5478477478 -3.7788460255 -4.3656401634 -4.4713592529
          -4.0965156555 -4.404299736 -4.4422712326 -4.3804249763 -3.8701078892 -4.0991683006
          -4.361389637 -3.7852065563 -3.8731672764 -3.4289104939 -4.3587903976 -4.0965156555
          -3.8534054756 -4.3329181671 -4.3218770027 -3.9340150356 -3.7599630356 -4.0846767426
          -3.8623166084 -4.5767769814 -4.7024974823 -4.3146986961 -4.6630926132 -4.7678561211
          -4.0683803558 -4.7420415878 -3.9199790955 -4.3330721855 -3.6553993225 -4.7486052513
          -3.9492809772 -4.7115192413 -4.0645337105 -4.3146986961 -4.6479492188 -3.9336495399
          -4.0345511436 -4.590326786 -4.3218770027 -4.05585289 -4.5397644043 -4.78520298
          -4.9289131165 -4.9391136169 -5.1238241196 -4.3329181671 -4.0453186035 -3.8413732052
          -5.1431622505 -4.1117663383 -4.5389714241 -5.155605793 -5.078962326 -4.3587903976
          -4.5397644043 -4.9840583801 -4.093773365 -4.1954789162 -4.590326786 -4.8754291534
          -4.361389637 -4.7648596764 -4.940554142 -5.0887813568 -4.1984148026 -5.1534352303
          -4.6479492188 -4.0068736076 -5.4069209099 -4.3804249763 -5.4677863121 -4.6942372322
          -5.467561245 -4.7115192413 -5.3728346825 -4.7648596764 -4.2672843933 -4.4422712326
          -5.2799625397 -4.7486052513 -4.8754291534 -5.1538543701 -4.1758317947 -4.9985122681
          -4.404299736 -4.9754285812 -4.9840583801 -5.1013126373 -5.1926612854 -4.7420415878
          -5.4625921249 -4.8241643906 -5.5372858047 -5.5259222984 -5.078962326 -4.4713592529
          -5.4691729546 -4.9985122681 -4.7678561211 -5.4434251785 -5.155605793 -5.1538543701
          -5.3785853386 -4.3656401634 -4.6630926132 -5.2404403687 -5.2799625397 -4.8319554329
          -5.1431622505 -4.9013943672 -4.9582867622 -5.1561870575 -4.9644813538 -5.2113623619
          -5.3728346825 -5.2365775108 -4.7024974823 -5.2404403687 -5.1238241196 -5.2911686897
          -5.3970222473 -5.467561245 -5.3785853386 -4.5767769814 -5.480922699 -4.9391136169
          -5.4429512024 -5.4434251785 -5.4677863121 -4.5024285316 -4.4948983192 -4.4574337006
          -4.5172815323 -5.1036157608 -4.5645418167 -4.9289131165 -5.4691729546 -4.6923899651
          -5.4069209099 -5.4429512024 -4.8922514915 -5.5259222984 -5.1528348923 -5.480922699
          -4.78520298 -5.1534352303 -5.4321913719 -5.3970222473 -5.5372858047 -5.5418410301
          -4.0598468781 -3.9948730469 -3.8610546589 -5.1908173561 -3.811029911 -5.0887813568
          -3.8875825405 -5.2911686897 -5.4625921249 -4.1085648537 -5.5418410301 -4.4265570641
          -5.2365775108 -4.940554142 -4.8188738823 -5.4321913719 -5.1926612854 -5.3026170731
          -5.2113623619 -5.1528348923 -5.5367164612 -3.6439197063 -3.587277174 -5.1013126373
          -3.4403250217 -5.2545838356 -3.3739593029 -4.8922514915 -3.4453172684 -5.1561870575
          -3.6588466167 -5.5367164612 -4.0471463203 -4.9754285812 -4.6923899651 -4.5879368782
          -4.9582867622 -5.3026170731 -5.3933997154 -4.5645418167 -4.8188738823 -5.6260457039
          -4.9013943672 -3.3921990395 -3.4096710682 -3.3437490463 -5.5376114845 -4.4265570641
          -3.272895813 -4.5172815323 -3.2210929394 -3.244027853 -5.6260457039 -4.8319554329
          -3.5488698483 -4.1085648537 -4.4574337006 -4.4729390144 -5.3933997154 -6.2180204391
          -3.8875825405 -4.5879368782 -6.4749808311 -4.4948983192 -3.3497207165 -3.4111719131
          -6.7670955658 -4.0471463203 -3.3595809937 -3.811029911 -3.2007496357 -2.9113163948
          -6.4749808311 -4.5024285316 -2.5346107483 -3.6588466167 -2.7589831352 -3.8610546589
          -6.2180204391 -4.6922693253 -8.656873703 -3.4453172684 -4.4729390144 -3.9948730469
          -8.0882072449 -3.3739593029 -3.3896808624 -3.5488698483 -3.4274423122 -6.8956370354
          -3.3345396519 -3.1145982742 -2.637791872 -4.0598468781 -8.0882072449 -1.4430720806
          -3.244027853 -3.4403250217 -0.29661056399 -8.656873703 -5.1741933823 -3.2210929394
          -10.833006859 -4.6922693253 -3.587277174 -9.7190170288 -3.272895813 -2.7589831352
          -7.4752159119 -3.6439197063 -9.7190170288 -2.5346107483 -3.3437490463 -10.833006859
          -2.9113163948 -3.4096710682 -5.1741933823 -3.2007496357 -0.29661056399 -3.3921990395
          -3.3595809937 -1.4430720806 -2.637791872 -3.4111719131 -3.1145982742 -3.3497207165
          -3.3345396519 -3.4274423122 -3.3896808624
        </DataArray>
        <DataArray type="Float32" Name="VELOCITY" NumberOfComponents="3" ComponentName0="X-VELOCITY" ComponentName1="Y-VELOCITY" ComponentName2="Z-VELOCITY" format="ascii" RangeMin="0" RangeMax="8.2864255905">
          0 0 0 0 0 0
          5.2509098053 8.1658945419e-005 0 5.2507381439 0.00010154872143 0
          5.2490696907 0.0002330076386 0 0 0 0
          5.250535965 0.00011145487952 0 5.2490210533 0.0002311073622 0
          5.2489557266 0.00025361197186 0 5.2499446869 0.00025152639137 0
          0 0 0 5.2503190041 0.0001126516654 0
          5.249830246 0.00031849782681 0 5.2496275902 0.00041986492579 0
          5.2488312721 0.0002949819318 0 5.2496333122 0.00036896640086 0
          0 0 0 5.2500901222 0.00011159235146 0
          5.2495474815 0.00047255735262 0 5.2493262291 0.00057317852043 0
          5.2485966682 0.00036545089097 0 5.249417305 0.0006398151163 0
          5.2488970757 0.00080213893671 0 5.2498545647 0.00041811019764 0
          0 0 0 5.2492213249 0.00088560732547 0
          5.2498216629 0.00054481439292 0 5.2498426437 0.00011240380263 0
          5.2481927872 0.00047820739564 0 5.2497563362 0.00075734191341 0
          5.2489237785 0.0012511609821 0 5.2482867241 0.0011411845917 0
          5.249651432 0.0010700578569 0 0 0 0
          5.2499389648 0.00042681064224 0 5.2499613762 0.00056157878134 0
          5.2495594025 0.00011990857456 0 5.2499847412 0.00078828301048 0
          5.247546196 0.00065361103043 0 5.2494921684 0.001532576629 0
          5.2484755516 0.001791439252 0 5.2474126816 0.0016416944563 0
          5.2500119209 0.0011203294853 0 0 0 0
          5.2500662804 0.00038226234028 0 5.249256134 0.0022128587589 0
          5.2492108345 0.00013915808813 0 5.2501454353 0.00050290417857 0
          5.2500452995 0.0016103192465 0 5.2478079796 0.0025867396034 0
          5.2465510368 0.00092121079797 0 5.2502536774 0.00070988963125 0
          5.2461528778 0.002378474921 0 5.2504034042 0.0010135718621 0
          5.2500867844 0.0023305034265 0 5.2489089966 0.0032104193233 0
          5.2501649857 0.00029083527625 0 0 0 0
          5.2506155968 0.0014614631655 0 5.2487511635 0.00017649930669 0
          5.2502908707 0.00038090688759 0 5.2468223572 0.0037531822454 0
          5.2450561523 0.0013241138076 0 5.2504692078 0.0005386491539 0
          5.250140667 0.0033864269499 0 5.2507228851 0.00077062792843 0
          5.2443299294 0.003459878033 0 5.2483997345 0.0046694683842 0
          5.2509198189 0.0021196440794 0 5.2510871887 0.0011125754099 0
          5.2453770638 0.0054582320154 0 5.2502412796 0.0001615780202 0
          0 0 0 5.2481136322 0.00024080819276 0
          5.2504043579 0.00020740409673 0 5.2513585091 0.0030848991591 0
          5.2428417206 0.0019253449282 0 5.2502121925 0.0049312557094 0
          5.2506361008 0.00029171750066 0 5.2516131401 0.0016151013551 0
          5.247654438 0.0067980275489 0 5.2416892052 0.0050421915948 0
          5.2509675026 0.00041708251229 0 5.2432699203 0.0079421792179 0
          5.2514448166 0.00060215522535 0 5.2519931793 0.0044983294792 0
          5.2502760887 1.1798160986e-015 0 5.2523775101 0.002352550393 0
          0 0 0 5.2503080368 0.0071865427308 0
          5.2471985817 0.00034530163975 0 5.2504692078 5.66077942e-016 0
          5.2395877838 0.0028170882724 0 5.2507386208 -5.5087555348e-016 0
          5.2465648651 0.0098944203928 0 5.2521367073 0.00087421457283 0
          5.2378649712 0.0073497388512 0 5.2511219978 -9.8575396825e-016 0
          5.253490448 0.0034338552505 0 5.2529125214 0.0065652257763 0
          5.2516732216 -3.0539739032e-015 0 5.2402086258 0.011547419243 0
          5.2504358292 0.010471245274 0 5.2531433105 0.0012736169156 0
          0 0 0 5.2502412796 -0.0001615780202 0
          5.2458600998 0.00051018007798 0 5.2504043579 -0.00020740409673 0
          5.2348322868 0.0041338927113 0 5.2449746132 0.014383281581 0
          5.2506361008 -0.00029171750066 0 5.2524719238 -5.1138419874e-015 0
          5.2551112175 0.0050186687149 0 5.2509675026 -0.00041708251229 0
          5.2542409897 0.0095833875239 0 5.2323384285 0.010702213272 0
          5.2546114922 0.0018598425668 0 5.2536344528 -2.9639008431e-015 0
          5.2505998611 0.015241630375 0 5.2514448166 -0.00060215522535 0
          5.2357807159 0.016757177189 0 5.2501649857 -0.00029083527625 0
          0 0 0 5.2502908707 -0.00038090688759 0
          5.2574710846 0.0073410053737 0 5.2438788414 0.00076658109901 0
          5.2567567825 0.002720778808 0 5.2426562309 0.020863030106 0
          5.2521367073 -0.00087421457283 0 5.2504692078 -0.0005386491539 0
          5.2279114723 0.006071172189 0 5.2561526299 0.013983067125 0
          5.2553305626 -1.1003712903e-015 0 5.2507228851 -0.00077062792843 0
          5.2243785858 0.015550500713 0 5.2507982254 0.022144751623 0
          5.2531433105 -0.0012736169156 0 5.2510871887 -0.0011125754099 0
          5.2294034958 0.02424448356 0 5.259894371 0.0039868261665 0
          5.2609009743 0.010743775405 0 5.257809639 -5.9085307337e-016 0
          5.2500662804 -0.00038226234028 0 0 0 0
          5.2516131401 -0.0016151013551 0 5.2392807007 0.030165651813 0
          5.2588839531 0.020382259041 0 5.2501454353 -0.00050290417857 0
          5.2409300804 0.0011624896433 0 5.2546114922 -0.0018598425668 0
          5.2178821564 0.0089102601632 0 5.2502536774 -0.00070988963125 0
          5.2504034042 -0.0010135718621 0 5.2129688263 0.022520948201 0
          5.2523775101 -0.002352550393 0 5.2510099411 0.032087381929 0
          5.2614417076 2.9213247849e-016 0 5.2644848824 0.0058524440974 0
          5.2658700943 0.015728676692 0 5.2202701569 0.034929651767 0
          5.2567567825 -0.002720778808 0 5.2506155968 -0.0014614631655 0
          5.2627506256 0.029660830274 0 5.253490448 -0.0034338552505 0
          5.234377861 0.043426584452 0 5.2509198189 -0.0021196440794 0
          5.2499389648 -0.00042681064224 0 0 0 0
          5.236530304 0.0017713473644 0 5.2499613762 -0.00056157878134 0
          5.2667751312 -2.3846501623e-015 0 5.2499847412 -0.00078828301048 0
          5.203420639 0.013050339185 0 5.259894371 -0.0039868261665 0
          5.2712020874 0.0086089465767 0 5.2500119209 -0.0011203294853 0
          5.2513585091 -0.0030848991591 0 5.1967201233 0.032464496791 0
          5.2511749268 0.046319067478 0 5.2551112175 -0.0050186687149 0
          5.2730379105 0.023026235402 0 5.2500452995 -0.0016103192465 0
          5.2072777748 0.050038844347 0 5.2681574821 0.043053496629 0
          5.2519931793 -0.0044983294792 0 5.2644848824 -0.0058524440974 0
          5.2272796631 0.062155175954 0 5.2500867844 -0.0023305034265 0
          5.2746310234 -4.6327802129e-015 0 5.2574710846 -0.0073410053737 0
          5.2498545647 -0.00041811019764 0 0 0 0
          5.2810277939 0.012693000026 0 5.2299633026 0.0027038760018 0
          5.2498216629 -0.00054481439292 0 5.1826982498 0.019044693559 0
          5.2497563362 -0.00075734191341 0 5.250140667 -0.0033864269499 0
          5.2511568069 0.066518358886 0 5.2529125214 -0.0065652257763 0
          5.283311367 0.033686902374 0 5.249651432 -0.0010700578569 0
          5.1737756729 0.046499665827 0 5.2494921684 -0.001532576629 0
          5.1889567375 0.071144729853 0 5.2712020874 -0.0086089465767 0
          5.2609009743 -0.010743775405 0 5.2862443924 -5.6422512096e-015 0
          5.275601387 0.062248114496 0 5.2502121925 -0.0049312557094 0
          5.2542409897 -0.0095833875239 0 5.2170524597 0.088279873133 0
          5.249256134 -0.0022128587589 0 5.2953848839 0.018752045929 0
          5.2496333122 -0.00036896640086 0 0 0 0
          5.2495474815 -0.00047255735262 0 5.220179081 0.0041225999594 0
          5.249417305 -0.0006398151163 0 5.2503080368 -0.0071865427308 0
          5.2979249954 0.049176048487 0 5.1532487869 0.027632191777 0
          5.2506966591 0.094845809042 0 5.2489089966 -0.0032104193233 0
          5.2658700943 -0.015728676692 0 5.2492213249 -0.00088560732547 0
          5.141731739 0.066024243832 0 5.2810277939 -0.012693000026 0
          5.2561526299 -0.013983067125 0 5.3034844398 -7.8721336294e-015 0
          5.1634039879 0.10014897585 0 5.2489237785 -0.0012511609821 0
          5.2856793404 0.089435048401 0 5.2483997345 -0.0046694683842 0
          5.2504358292 -0.010471245274 0 5.3163146973 0.027710942551 0
          5.202434063 0.12410772592 0 5.2484755516 -0.001791439252 0
          5.2730379105 -0.023026235402 0 5.3185324669 0.071400493383 0
          0 0 0 5.247654438 -0.0067980275489 0
          5.2499446869 -0.00025152639137 0 5.2953848839 -0.018752045929 0
          5.2588839531 -0.020382259041 0 5.249830246 -0.00031849782681 0
          5.2056694031 0.0062559014186 0 5.2478079796 -0.0025867396034 0
          5.2493834496 0.13386622071 0 5.2496275902 -0.00041986492579 0
          5.1118578911 0.039742864668 0 5.2505998611 -0.015241630375 0
          5.3291521072 -9.1916280021e-015 0 5.097612381 0.092648364604 0
          5.2493262291 -0.00057317852043 0 5.2468223572 -0.0037531822454 0
          5.2488970757 -0.00080213893671 0 5.1282725334 0.13913063705 0
          5.2991366386 0.12715531886 0 5.2465648651 -0.0098944203928 0
          5.3466944695 0.040773328394 0 5.2627506256 -0.029660830274 0
          5.283311367 -0.033686902374 0 5.2482867241 -0.0011411845917 0
          5.1818389893 0.17207199335 0 5.2507982254 -0.022144751623 0
          5.3163146973 -0.027710942551 0 5.3473544121 0.10246890783 0
          5.2453770638 -0.0054582320154 0 0 0 0
          5.2490696907 -0.0002330076386 0 5.2474126816 -0.0016416944563 0
          5.1843347549 0.009403356351 0 5.2467498779 0.18612331152 0
          5.2449746132 -0.014383281581 0 5.2490210533 -0.0002311073622 0
          5.3673214912 -7.1358121235e-015 0 5.2489557266 -0.00025361197186 0
          5.0545330048 0.056438691914 0 5.0379714966 0.12797382474 0
          5.2488312721 -0.0002949819318 0 5.2432699203 -0.0079421792179 0
          5.3904223442 0.059185400605 0 5.2681574821 -0.043053496629 0
          5.3170905113 0.17761993408 0 5.2461528778 -0.002378474921 0
          5.2979249954 -0.049176048487 0 5.2485966682 -0.00036545089097 0
          5.2510099411 -0.032087381929 0 5.0809025764 0.18993718922 0
          5.3466944695 -0.040773328394 0 5.2426562309 -0.020863030106 0
          5.1535925865 0.23404556513 0 5.2481927872 -0.00047820739564 0
          5.3874120712 0.14380083978 0 5.2443299294 -0.003459878033 0
          5.2402086258 -0.011547419243 0 5.4234881401 -5.0361419611e-015 0
          5.247546196 -0.00065361103043 0 5.2427368164 0.25299483538 0
          5.2509098053 -8.1658945419e-005 0 0 0 0
          5.2507381439 -0.00010154872143 0 5.1533808708 0.013916887343 0
          5.275601387 -0.062248114496 0 4.9766583443 0.07873455435 0
          5.250535965 -0.00011145487952 0 5.2511749268 -0.046319067478 0
          5.2392807007 -0.030165651813 0 5.3185324669 -0.071400493383 0
          5.2416892052 -0.0050421915948 0 5.2503190041 -0.0001126516654 0
          4.9592318535 0.17312979698 0 5.4523873329 0.083466231823 0
          5.2465510368 -0.00092121079797 0 5.3416309357 0.24101524055 0
          5.3904223442 -0.059185400605 0 5.2500901222 -0.00011159235146 0
          5.2357807159 -0.016757177189 0 5.018764019 0.25336554646 0
          5.1166996956 0.30994322896 0 5.2498426437 -0.00011240380263 0
          5.4428296089 0.19414702058 0 5.2450561523 -0.0013241138076 0
          5.2378649712 -0.0073497388512 0 5.5039796829 -2.0292018916e-015 0
          5.2511568069 -0.066518358886 0 5.2856793404 -0.089435048401 0