<?xml version="1.0"?>
<VTKFile type="PolyData" version="0.1" byte_order="LittleEndian" compressor="vtkZLibDataCompressor">
  <PolyData>
    <Piece NumberOfPoints="1071" NumberOfVerts="0" NumberOfLines="0" NumberOfStrips="0" NumberOfPolys="2000">
      <PointData>
        <DataArray type="Float32" Name="PRESSURE" format="ascii" RangeMin="-7.1923117638" RangeMax="3.3097436428">
          0 -0.049854509532 0 -0.069312736392 0 -0.11887669563
          -0.14134761691 -0.065816253424 -0.13730286062 0 -0.1867890209 -0.20605234802
          -0.066889308393 -0.13712397218 -0.20638866723 0 -0.24636758864 -0.26199135184
          -0.05472972244 -0.20824664831 -0.26697763801 -0.12105767429 -0.27390506864 0
          -0.29395246506 -0.19466389716 -0.04029199481 -0.30578583479 -0.31468740106 -0.10218501836
          -0.26773291826 -0.32762536407 -0.17844182253 -0.32640457153 0 -0.027774341404
          -0.33430305123 -0.086888305843 -0.34524667263 -0.25912734866 -0.33145552874 -0.36285808682
          -0.16780865192 -0.34170013666 0 -0.33213713765 -0.34566661716 -0.026641566306
          -0.25683879852 -0.37690237164 -0.35608661175 -0.086029775441 -0.37543028593 -0.16985753179
          -0.33830943704 -0.38555127382 0 -0.33994984627 -0.26274821162 -0.34042221308
          -0.038829602301 -0.39802950621 -0.34766954184 -0.099851131439 -0.39770743251 -0.17893595994
          -0.36516836286 -0.41121831536 -0.34653836489 -0.26519370079 -0.39341509342 0
          -0.3238735795 -0.32184109092 -0.044117256999 -0.40543147922 -0.32370370626 -0.42581063509
          -0.098652102053 -0.34156641364 -0.40674552321 -0.33602410555 -0.1709677577 -0.36637365818
          -0.25072541833 -0.43070101738 0 -0.39311653376 -0.29861286283 -0.42058643699
          -0.29556408525 -0.032051187009 -0.29061028361 -0.078668355942 -0.37542316318 -0.32130432129
          -0.29532143474 -0.14606533945 -0.4124840498 -0.42192390561 -0.22420676053 -0.32406532764
          -0.38648203015 -0.3682808578 -0.27104628086 0 -0.2687985301 -0.044117256999
          -0.25657430291 -0.32502916455 -0.098652102053 -0.29595068097 -0.40081325173 -0.1709677577
          -0.38529717922 -0.25262498856 -0.38517263532 -0.34647554159 -0.33266609907 -0.25072541833
          -0.27636668086 0 -0.24878494442 -0.038829602301 -0.36558625102 -0.24927645922
          -0.37430247664 -0.26669502258 -0.32130432129 -0.099851131439 -0.23043985665 -0.33124625683
          -0.36944660544 -0.17893595994 -0.21856419742 -0.27168259025 -0.3682808578 -0.26519370079
          -0.23486720026 -0.34420779347 -0.31766709685 -0.36746707559 0 -0.23899899423
          -0.34156641364 -0.2141378969 -0.27268093824 -0.026641566306 -0.24408303201 -0.38517263532
          -0.22049145401 -0.086029775441 -0.16985753179 -0.20352552831 -0.39311653376 -0.21851088107
          -0.34842815995 -0.3056448698 -0.26873233914 -0.21168884635 -0.37430247664 -0.26274821162
          -0.22374135256 -0.4124840498 -0.18247835338 -0.34653836489 0 -0.24715858698
          -0.25838720798 -0.027774341404 -0.32039010525 -0.086888305843 -0.23303073645 -0.34420779347
          -0.26794186234 -0.16780865192 -0.40543147922 -0.21590657532 -0.18898189068 -0.40081325173
          -0.22978833318 -0.25683879852 -0.21750299633 -0.19854414463 -0.43070101738 -0.3056448698
          -0.18552649021 -0.33830943704 -0.28817689419 -0.36558625102 0 -0.27579140663
          -0.23814722896 -0.29416009784 -0.04029199481 -0.27076917887 -0.10218501836 -0.39770743251
          -0.19669239223 -0.42192390561 -0.21158526838 -0.17844182253 -0.25985401869 -0.25912734866
          -0.25848329067 -0.26794186234 -0.31766709685 -0.25526246428 -0.20943552256 -0.42581063509
          -0.38529717922 -0.23130230606 -0.33213713765 -0.22422170639 0 -0.32347199321
          -0.05472972244 -0.34913524985 -0.12105767429 -0.42058643699 -0.22533538938 -0.33137452602
          -0.24852055311 -0.38555127382 -0.26873233914 -0.19466389716 -0.33301207423 -0.23814722896
          -0.33124625683 -0.23045104742 -0.33294826746 -0.26773291826 -0.26337358356 -0.41121831536
          -0.38648203015 -0.23756246269 -0.31730732322 -0.33145552874 -0.22978833318 -0.27880710363
          -0.38438647985 -0.40674552321 0 -0.22422170639 -0.27268093824 -0.066889308393
          -0.41642534733 -0.37690237164 -0.33998969197 -0.13712397218 -0.406817168 -0.33266609907
          -0.23038926721 -0.42539945245 -0.20824664831 -0.39802950621 -0.27390506864 -0.42949771881
          -0.3558127284 -0.37542316318 -0.28707623482 -0.22374135256 -0.21158526838 -0.32762536407
          -0.42839553952 -0.27168259025 -0.23756246269 -0.36704540253 -0.39341509342 -0.44882464409
          0 -0.36285808682 -0.48519858718 -0.45308440924 -0.32502916455 -0.065816253424
          -0.26926699281 -0.13730286062 -0.48416140676 -0.52051830292 -0.20638866723 -0.36637365818
          -0.36724692583 -0.19854414463 -0.46644201875 -0.37543028593 -0.22533538938 -0.26697763801
          -0.21851088107 -0.52844381332 -0.28707623482 -0.26669502258 -0.53952991962 -0.31468740106
          -0.4673846364 -0.36516836286 -0.32406532764 -0.34334155917 -0.34524667263 -0.55962228775
          0 -0.50474691391 -0.069312736392 -0.54253906012 -0.20943552256 -0.5479747057
          -0.14134761691 -0.18898189068 -0.2141378969 -0.27880710363 -0.33602410555 -0.20605234802
          -0.59887903929 -0.45465299487 -0.35608661175 -0.56377488375 -0.36724692583 -0.26199135184
          -0.27636668086 -0.60673713684 -0.62307024002 -0.30578583479 -0.54785084724 -0.34766954184
          -0.29532143474 -0.4284581542 -0.19669239223 -0.26337358356 -0.18247835338 -0.63046425581
          -0.33430305123 -0.36704540253 -0.54020506144 -0.23486720026 0 -0.049854509532
          -0.57616555691 -0.11887669563 -0.58379542828 -0.32370370626 -0.51978826523 -0.1867890209
          -0.64282208681 -0.34566661716 -0.45465299487 -0.61826181412 -0.25262498856 -0.24636758864
          -0.64445990324 -0.24852055311 -0.18552649021 -0.29061028361 -0.49451392889 -0.34042221308
          -0.65734571218 -0.58331781626 -0.21168884635 -0.3558127284 -0.29395246506 -0.4673846364
          -0.21856419742 -0.32640457153 -0.64588832855 -0.54604971409 -0.57731235027 -0.32184109092
          -0.54310745001 -0.58160287142 -0.25657430291 -0.51978826523 -0.6144258976 -0.34170013666
          -0.23130230606 -0.6408727169 -0.33998969197 -0.21750299633 -0.63013154268 -0.46644201875
          -0.20352552831 -0.52216666937 -0.29556408525 -0.33994984627 -0.56574398279 -0.63254141808
          -0.23043985665 -0.54785084724 -0.60109829903 -0.52174538374 -0.3238735795 -0.31730732322
          -0.25848329067 -0.54310745001 -0.2687985301 -0.51823067665 -0.54300302267 -0.21590657532
          -0.45308440924 -0.53830444813 -0.55406796932 -0.56377488375 -0.59033685923 -0.22049145401
          -0.56311708689 -0.50868958235 -0.29861286283 -0.24927645922 -0.50301730633 -0.58331781626
          -0.55199301243 -0.33294826746 -0.25985401869 -0.42839553952 -0.50509637594 -0.55962228775
          -0.23303073645 -0.52174538374 -0.27104628086 -0.46550503373 -0.45912462473 -0.24408303201
          -0.61826181412 -0.47716915607 -0.45874688029 -0.45156660676 -0.49787259102 -0.46327516437
          -0.24878494442 -0.56574398279 -0.45324853063 -0.42949771881 -0.33301207423 -0.41157495975
          -0.27076917887 -0.53952991962 -0.42995682359 -0.63046425581 -0.25838720798 -0.46550503373
          -0.37607452273 -0.38909810781 -0.23899899423 -0.6144258976 -0.3775998354 -0.39040383697
          -0.32743641734 -0.42539945245 -0.355255723 -0.52844381332 -0.33137452602 -0.39893627167
          -0.37852177024 -0.50301730633 -0.62307024002 -0.29416009784 -0.318926543 -0.30981004238
          -0.64588832855 -0.24715858698 -0.28838467598 -0.38909810781 -0.55406796932 -0.30653315783
          -0.23747739196 -0.406817168 -0.52051830292 -0.60673713684 -0.34913524985 -0.20464865863
          -0.28779563308 -0.27579140663 -0.65734571218 -0.29841390252 -0.41157495975 -0.32639011741
          -0.2459268868 -0.25375282764 -0.60109829903 -0.21538324654 -0.18480952084 -0.48416140676
          -0.30653315783 -0.15443311632 -0.59887903929 -0.41642534733 -0.45156660676 -0.64445990324
          -0.32347199321 -0.22964167595 -0.11646243185 -0.63254141808 -0.30981004238 -0.10824204236
          -0.20678406954 -0.25245156884 -0.21938692033 -0.50509637594 -0.15184301138 -0.14861612022
          -0.5479747057 -0.48519858718 -0.14627121389 -0.64282208681 -0.38438647985 -0.079090483487
          -0.63013154268 -0.22964167595 -0.32743641734 -0.058442912996 -0.17089135945 -0.55199301243
          -0.043389562517 -0.21538324654 -0.54253906012 -0.58379542828 -0.44882464409 -0.065823405981
          -0.18492180109 -0.37607452273 -0.15141621232 -0.6408727169 -0.1705801785 -0.093311838806
          -0.087645716965 -0.12358193099 -0.56311708689 -0.029346507043 -0.20464865863 -0.17089135945
          -0.030378114432 -0.42995682359 -0.14903487265 -0.57616555691 -0.50474691391 -0.58160287142
          -0.048648443073 -0.14627121389 -0.23747739196 -0.59033685923 -0.14308953285 -0.10445636511
          -0.13480162621 -0.16458457708 -0.45324853063 -0.085399515927 -0.1710061878 -0.089274510741
          -0.10824204236 -0.14903487265 -0.056016400456 -0.54020506144 -0.28838467598 -0.57731235027
          -0.53830444813 -0.092229828238 -0.19032643735 -0.49787259102 -0.12358193099 -0.15252307057
          -0.11646243185 -0.16155354679 -0.318926543 -0.23889102042 -0.54604971409 -0.1630885452
          -0.20598262548 -0.065823405981 -0.13356718421 -0.54300302267 -0.30285260081 -0.15443311632
          -0.19032643735 -0.15958738327 -0.45874688029 -0.16406206787 -0.37852177024 -0.31289497018
          -0.24592579901 -0.043389562517 -0.1710061878 -0.34829312563 -0.18480952084 -0.26847666502
          -0.51823067665 -0.47716915607 -0.4527066946 -0.10445636511 -0.23345282674 -0.355255723
          -0.058442912996 -0.28943350911 -0.23088948429 -0.31289497018 -0.50148409605 -0.2877817452
          -0.25375282764 -0.33588904142 -0.49778407812 -0.048648443073 -0.46218127012 -0.30285260081
          -0.45912462473 -0.079090483487 -0.59010398388 -0.39040383697 -0.44803330302 -0.68884700537
          -0.2459268868 -0.23889102042 -0.030378114432 -0.33427026868 -0.49778407812 -0.40030631423
          -0.70785373449 -0.35860303044 -0.14861612022 -0.4464596808 -0.3775998354 -0.53095114231
          -0.15252307057 -0.68227678537 -0.029346507043 -0.50148409605 -0.68197238445 -0.29841390252
          -0.80345511436 -0.6356356144 -0.15184301138 -0.092229828238 -0.86993384361 -0.4527066946
          -0.087645716965 -0.68227678537 -0.44805809855 -0.85043764114 -0.51847928762 -0.28779563308
          -0.49100750685 -0.59867489338 -0.34829312563 -0.21938692033 -0.69689166546 -0.056016400456
          -0.80018931627 -0.70785373449 -0.83830034733 -0.093311838806 -0.92078524828 -0.76571881771
          -0.24592579901 -0.68884700537 -0.94250297546 -0.089274510741 -0.20678406954 -0.80018931627
          -0.89459830523 -0.55683088303 -0.1705801785 -0.62472844124 -0.60393214226 -0.59010398388
          -0.16406206787 -0.71066516638 -0.85043764114 -0.83250570297 -0.79092001915 -0.085399515927
          -0.88911646605 -0.82108950615 -0.46218127012 -0.91866564751 -0.15141621232 -0.86993384361
          -0.15958738327 -0.90886348486 -0.16458457708 -0.83250570297 -0.86242651939 -0.33588904142
          -0.6483463645 -0.70772737265 -0.80345511436 -0.68394315243 -0.13356718421 -0.76590496302
          -0.89459830523 -0.81286412477 -0.80124652386 -0.83983063698 -0.13480162621 -0.68197238445
          -0.82962059975 -0.2877817452 -0.82888758183 -0.94250297546 -0.20598262548 -0.81929028034
          -0.81286412477 -0.53095114231 -0.92078524828 -0.80536860228 -0.23088948429 -0.7209392786
          -0.76890766621 -0.73446536064 -0.86242651939 -0.77422648668 -0.78717494011 -0.75522708893
          -0.1630885452 -0.83830034733 -0.4464596808 -0.74086821079 -0.82086902857 -0.90886348486
          -0.28943350911 -0.71892738342 -0.73662734032 -0.78717494011 -0.69689166546 -0.35860303044
          -0.91866564751 -0.76482409239 -0.78475224972 -0.8228173852 -0.77571338415 -0.23345282674
          -0.80536860228 -0.7705873251 -0.77792489529 -0.70834130049 -0.59867489338 -0.88911646605
          -0.66434669495 -0.40030631423 -0.81929028034 -0.80427491665 -0.65939849615 -0.70686817169
          -0.79092001915 -0.77792489529 -0.49100750685 -0.82888758183 -0.76157128811 -0.33427026868
          -0.85823464394 -0.76482409239 -0.89208984375 -0.83766943216 -0.79260611534 -0.80226922035
          -0.71066516638 -0.83983063698 -0.7208532691 -0.51847928762 -0.67501461506 -0.73662734032
          -0.79843366146 -0.69687736034 -0.80124652386 -0.60393214226 -0.79260611534 -0.75299435854
          -0.71892738342 -0.44805809855 -0.81120383739 -0.76157128811 -0.96043330431 -0.76590496302
          -0.99816530943 -0.948394835 -0.84912008047 -0.74086821079 -0.62472844124 -0.90980350971
          -0.83550596237 -0.70686817169 -0.84808409214 -0.8079482317 -0.8426977396 -0.68394315243
          -0.75522708893 -0.55683088303 -0.84912008047 -0.65939849615 -0.88137590885 -0.92613816261
          -0.81120383739 -0.77422648668 -0.70772737265 -0.66434669495 -1.1011571884 -1.1505199671
          -0.96100562811 -1.1217874289 -1.1109361649 -1.0653735399 -0.75299435854 -0.97469067574
          -1.0608519316 -0.73446536064 -0.70834130049 -0.6483463645 -1.0815378428 -0.96100562811
          -0.69687736034 -1.0851415396 -1.0994839668 -0.7705873251 -0.76890766621 -0.92613816261
          -0.67501461506 -1.2718160152 -1.3373329639 -1.1125947237 -1.3476479053 -1.3921604156
          -0.88137590885 -1.3912051916 -0.77571338415 -1.141321063 -0.7209392786 -1.4008469582
          -0.7208532691 -1.3856066465 -0.8426977396 -1.1125947237 -1.3466310501 -0.8228173852
          -0.80226922035 -1.3120312691 -1.0994839668 -0.8079482317 -1.2799062729 -1.4395492077
          -1.519487381 -1.5836311579 -1.701613903 -1.0851415396 -0.83766943216 -0.78475224972
          -1.7553582191 -0.83550596237 -1.2914531231 -1.7647277117 -1.7094519138 -1.0815378428
          -1.2799062729 -1.6356137991 -0.89208984375 -0.90980350971 -1.3120312691 -1.5482391119
          -1.0608519316 -1.4552614689 -1.547450304 -1.6301466227 -0.948394835 -1.7493921518
          -1.3466310501 -0.85823464394 -1.9371299744 -1.0653735399 -2.0410017967 -1.3998930454
          -2.0380518436 -1.3856066465 -1.9647319317 -1.4552614689 -0.99816530943 -1.1109361649
          -1.8911342621 -1.4008469582 -1.5482391119 -1.785007 -0.96043330431 -1.6464492083
          -1.1217874289 -1.5255601406 -1.6356137991 -1.5867027044 -1.734618783 -1.3912051916
          -1.9487444162 -1.4886227846 -2.0712575912 -2.0624117851 -1.7094519138 -1.1505199671
          -2.0271441936 -1.6464492083 -1.3921604156 -2.0210392475 -1.7647277117 -1.785007
          -1.9765570164 -1.1011571884 -1.3476479053 -1.855361104 -1.8911342621 -1.3179473877
          -1.7553582191 -1.3258037567 -1.4449654818 -1.6045161486 -1.5944629908 -1.7056643963
          -1.9647319317 -1.7395881414 -1.3373329639 -1.855361104 -1.701613903 -1.8161605597
          -1.9445755482 -2.0380518436 -1.9765570164 -1.2718160152 -2.0540339947 -1.5836311579
          -2.039583683 -2.0210392475 -2.0410017967 -0.92236340046 -0.8584420085 -0.88863563538
          -0.929022789 -1.7128893137 -1.0145622492 -1.519487381 -2.0271441936 -1.1557160616
          -1.9371299744 -2.039583683 -1.3775342703 -2.0624117851 -1.664213419 -2.0540339947
          -1.4395492077 -1.7493921518 -1.9825072289 -1.9445755482 -2.0712575912 -2.1383144855
          -0.41868779063 -0.30451786518 -0.23475168645 -1.8010554314 -0.17821711302 -1.6301466227
          -0.28537210822 -1.8161605597 -1.9487444162 -0.52088582516 -2.1383144855 -0.85556006432
          -1.7395881414 -1.547450304 -1.2738620043 -1.9825072289 -1.734618783 -1.8209273815
          -1.7056643963 -1.664213419 -2.1532254219 0.048509813845 0.14558415115 -1.5867027044
          0.24521636963 -1.8925052881 0.31277361512 -1.3775342703 0.21594853699 -1.6045161486
          -0.010504937731 -2.1532254219 -0.40755492449 -1.5255601406 -1.1557160616 -0.96566992998
          -1.4449654818 -1.8209273815 -1.8686565161 -1.0145622492 -1.2738620043 -2.2853391171
          -1.3258037567 0.34241977334 0.3558806777 0.39655327797 -2.2313191891 -0.85556006432
          0.46760728955 -0.929022789 0.49848616123 0.45438304543 -2.2853391171 -1.3179473877
          0.11585318297 -0.52088582516 -0.88863563538 -0.79203140736 -1.8686565161 -2.6722669601
          -0.28537210822 -0.96566992998 -3.1983451843 -0.8584420085 0.42074856162 0.38296106458
          -3.6005237103 -0.40755492449 0.42349252105 -0.17821711302 0.58270150423 0.84586781263
          -3.1983451843 -0.92236340046 1.1491292715 -0.010504937731 0.75371330976 -0.23475168645
          -2.6722669601 -1.0536241531 -5.0666213036 0.21594853699 -0.79203140736 -0.30451786518
          -4.8030953407 0.31277361512 0.40460503101 0.11585318297 0.37966120243 -4.001660347
          0.46614569426 0.67506015301 1.0951398611 -0.41868779063 -4.8030953407 2.1078243256
          0.45438304543 0.24521636963 3.3097436428 -5.0666213036 -1.273152709 0.49848616123
          -7.1923117638 -1.0536241531 0.14558415115 -6.8308057785 0.46760728955 0.75371330976
          -4.9326834679 0.048509813845 -6.8308057785 1.1491292715 0.39655327797 -7.1923117638
          0.84586781263 0.3558806777 -1.273152709 0.58270150423 3.3097436428 0.34241977334
          0.42349252105 2.1078243256 1.0951398611 0.38296106458 0.67506015301 0.42074856162
          0.46614569426 0.37966120243 0.40460503101
        </DataArray>
        <DataArray type="Float32" Name="VELOCITY" NumberOfComponents="3" ComponentName0="X-VELOCITY" ComponentName1="Y-VELOCITY" ComponentName2="Z-VELOCITY" format="ascii" RangeMin="0" RangeMax="8.3054828644">
          0 0 0 0 0 0
          2.6069600582 0.019735420123 0 2.5645489693 0.021549478173 0
          2.0623037815 0.061173163354 0 0 0 0
          2.5266239643 0.017674151808 0 2.0571565628 0.049035817385 0
          2.045330286 0.043753240258 0 3.9360256195 0.056551691145 0
          0 0 0 2.4938328266 0.014131194912 0
          3.9420330524 0.051434401423 0 3.9438056946 0.047165282071 0
          2.0345609188 0.034935105592 0 4.8479504585 0.044564038515 0
          0 0 0 2.4689438343 0.0099413525313 0
          4.8601059914 0.045996032655 0 3.9407188892 0.039952557534 0
          2.0255482197 0.024975063279 0 4.8580451012 0.050839211792 0
          3.9334967136 0.030692873523 0 5.5760684013 0.029820278287 0
          0 0 0 4.8439130783 0.051596678793 0
          5.5838036537 0.045033931732 0 2.4520475864 0.0058132424019 0
          2.0195374489 0.014511892572 0 5.5736913681 0.064814306796 0
          4.8200330734 0.048765767366 0 3.9233109951 0.019678723067 0
          5.5488204956 0.077699661255 0 0 0 0
          6.1600732803 0.019789082929 0 6.1611571312 0.049858365208 0
          2.4429371357 0.0019808607176 0 6.147371769 0.084823861718 0
          2.0174665451 0.0043244520202 0 5.5154309273 0.081985741854 0
          4.7901296616 0.041235350072 0 3.9122173786 0.0076641980559 0
          6.1236476898 0.10697172582 0 0 0 0
          6.6993470192 0.018265794963 0 5.481400013 0.075459226966 0
          2.4408261776 -0.0011753073195 0 6.6880216599 0.061364106834 0
          6.0992789268 0.11141702533 0 4.7585554123 0.029583863914 0
          2.0196752548 -0.0043894965202 0 6.6721439362 0.10431833565 0
          3.9021968842 -0.0036843628623 0 6.658010006 0.12639304996 0
          6.0841236115 0.096285872161 0 5.4541072845 0.05921074003 0
          7.1133108139 0.030887888744 0 0 0 0
          6.6535563469 0.12131298333 0 2.4441261292 -0.0032275228295 0
          7.1018924713 0.075096055865 0 4.7292118073 0.01598242484 0
          2.025718689 -0.010393129662 0 7.1008477211 0.11268055439 0
          6.0850529671 0.065261363983 0 7.1142883301 0.123394683 0
          3.8947424889 -0.012543627061 0 5.4389619827 0.036963727325 0
          6.6639409065 0.090368762612 0 7.1411046982 0.10449336469 0
          4.7048592567 0.0031719072722 0 7.2442555428 0.038439985365 0
          0 0 0 2.4505152702 -0.003863875987 0
          7.2694759369 0.062903083861 0 6.6898088455 0.041635341942 0
          2.0344583988 -0.012729675509 0 6.1049747467 0.025286095217 0
          7.318751812 0.081288859248 0 7.1754698753 0.061943616718 0
          5.438975811 0.013216424733 0 3.8906314373 -0.0173477754 0
          7.3831806183 0.079126849771 0 4.6870312691 -0.0063547291793 0
          7.4465293884 0.058092925698 0 6.728225708 -0.014388782904 0
          7.2469148636 -7.2934695189e-015 0 7.2095069885 0.0067665176466 0
          0 0 0 6.1434774399 -0.016489157453 0
          2.4571604729 -0.0029401658103 0 7.3115100861 -8.2217752775e-015 0
          2.0442504883 -0.010896188207 0 7.4020137787 -7.8110091908e-015 0
          5.4551768303 -0.0081425188109 0 7.4934005737 0.024646302685 0
          3.8899343014 -0.017111316323 0 7.4930500984 -1.022330905e-014 0
          7.2360167503 -0.049753151834 0 6.7742500305 -0.068243607879 0
          7.562435627 -1.4484071969e-014 0 4.6763114929 -0.010863035917 0
          6.1977128983 -0.054119221866 0 7.5133485794 -0.013082385063 0
          0 0 0 7.2442555428 -0.038439985365 0
          2.4610447884 -0.00050385354552 0 7.2694759369 -0.062903083861 0
          2.0532264709 -0.0049327523448 0 5.4869747162 -0.024216387421 0
          7.318751812 -0.081288859248 0 7.5953435898 -1.5655903088e-014 0
          7.2496447563 -0.098277591169 0 7.3831806183 -0.079126849771 0
          6.8215208054 -0.11191344261 0 3.8921208382 -0.011570964009 0
          7.5023775101 -0.047975920141 0 7.586233139 -1.4895540246e-014 0
          6.2623314857 -0.082359671593 0 7.4465293884 -0.058092925698 0
          4.672516346 -0.0094620548189 0 7.1133108139 -0.030887888744 0
          0 0 0 7.1018924713 -0.075096055865 0
          7.2466063499 -0.13056799769 0 2.4593319893 0.0032121913973 0
          7.4621758461 -0.074344284832 0 5.5318274498 -0.032675195485 0
          7.4934005737 -0.024646302685 0 7.1008477211 -0.11268055439 0
          2.0595915318 0.0045773759484 0 6.8617830276 -0.13733796775 0
          7.5377717018 -1.2057332739e-014 0 7.1142883301 -0.123394683 0
          3.8961675167 -0.0011940617114 0 6.3285603523 -0.0955632478 0
          7.5133485794 0.013082385063 0 7.1411046982 -0.10449336469 0
          4.6746044159 -0.0020046983846 0 7.399066925 -0.086937338114 0
          7.2244367599 -0.13817079365 0 7.4590735435 -8.0942324444e-015 0
          6.6993470192 -0.018265794963 0 0 0 0
          7.1754698753 -0.061943616718 0 5.5843896866 -0.031362693757 0
          6.8848023415 -0.13585138321 0 6.6880216599 -0.061364106834 0
          2.4497237206 0.0078056673519 0 7.5023775101 0.047975920141 0
          2.0619115829 0.016546914354 0 6.6721439362 -0.10431833565 0
          6.658010006 -0.12639304996 0 3.9006755352 0.012834099121 0
          7.2095069885 -0.0067665176466 0 6.383872509 -0.087918460369 0
          7.364991188 -3.466280531e-015 0 7.3238997459 -0.080684870481 0
          7.1831512451 -0.11365476996 0 4.6804594994 0.010896672495 0
          7.4621758461 0.074344284832 0 6.6535563469 -0.12131298333 0
          6.8805289268 -0.10091719776 0 7.2360167503 0.049753151834 0
          5.6361346245 -0.018741866574 0 6.6639409065 -0.090368762612 0
          6.1600732803 -0.019789082929 0 0 0 0
          2.4307832718 0.012726976536 0 6.1611571312 -0.049858365208 0
          7.2758965492 3.7749285373e-015 0 6.147371769 -0.084823861718 0
          2.0593864918 0.029443545267 0 7.399066925 0.086937338114 0
          7.2522683144 -0.052674200386 0 6.1236476898 -0.10697172582 0
          6.6898088455 -0.041635341942 0 3.904088974 0.028608100489 0
          6.4141845703 -0.056180942804 0 7.2496447563 0.098277591169 0
          7.1278033257 -0.05546925962 0 6.0992789268 -0.11141702533 0
          4.6869668961 0.027626875788 0 6.8440513611 -0.033992722631 0
          6.728225708 0.014388782904 0 7.3238997459 0.080684870481 0
          5.6767234802 0.0045935367234 0 6.0841236115 -0.096285872161 0
          7.2155814171 6.6975835346e-015 0 7.2466063499 0.13056799769 0
          5.5760684013 -0.029820278287 0 0 0 0
          7.2030453682 -0.0059140203521 0 2.4022054672 0.017320182174 0
          5.5838036537 -0.045033931732 0 2.0521125793 0.041399616748 0
          5.5736913681 -0.064814306796 0 6.0850529671 -0.065261363983 0
          6.4092917442 -0.0040414095856 0 6.7742500305 0.068243607879 0
          7.0704774857 0.026129499078 0 5.5488204956 -0.077699661255 0
          3.9050781727 0.043562076986 0 5.5154309273 -0.081985741854 0
          4.6907758713 0.045248966664 0 7.2522683144 0.052674200386 0
          7.2244367599 0.13817079365 0 7.2051620483 6.1379759714e-015 0
          6.7810435295 0.050337251276 0 6.1049747467 -0.025286095217 0
          6.8215208054 0.11191344261 0 5.6976561546 0.034091338515 0
          5.481400013 -0.075459226966 0 7.1934294701 0.048054028302 0
          4.8479504585 -0.044564038515 0 0 0 0
          4.8601059914 -0.045996032655 0 2.3649868965 0.020902652293 0
          4.8580451012 -0.050839211792 0 6.1434774399 0.016489157453 0
          7.0285639763 0.1078408882 0 2.0412793159 0.050426974893 0
          6.3693332672 0.055174656212 0 5.4541072845 -0.05921074003 0
          7.1831512451 0.11365476996 0 4.8439130783 -0.051596678793 0
          3.9030601978 0.054720703512 0 7.2030453682 0.0059140203521 0
          6.8617830276 0.13733796775 0 7.2538151741 1.2681731758e-015 0
          4.6898140907 0.059477671981 0 4.8200330734 -0.048765767366 0
          6.7089738846 0.12586398423 0 5.4389619827 -0.036963727325 0
          6.1977128983 0.054119221866 0 7.2311973572 0.091515049338 0
          5.6967906952 0.060793988407 0 4.7901296616 -0.041235350072 0
          7.1278033257 0.05546925962 0 7.0178599358 0.16121917963 0
          0 0 0 5.438975811 -0.013216424733 0
          3.9360256195 -0.056551691145 0 7.1934294701 -0.048054028302 0
          6.8848023415 0.13585138321 0 3.9420330524 -0.051434401423 0
          2.3214240074 0.022889295593 0 4.7585554123 -0.029583863914 0
          6.3074655533 0.10133450478 0 3.9438056946 -0.047165282071 0
          2.0292150974 0.054755702615 0 6.2623314857 0.082359671593 0
          7.3514919281 3.013998395e-016 0 3.8986899853 0.059207625687 0
          3.9407188892 -0.039952557534 0 4.7292118073 -0.01598242484 0
          3.9334967136 -0.030692873523 0 4.6849079132 0.065354958177 0
          6.650841713 0.16524785757 0 5.4551768303 0.0081425188109 0
          7.3085579872 0.10851660371 0 6.8805289268 0.10091719776 0
          7.0704774857 -0.026129499078 0 3.9233109951 -0.019678723067 0
          5.6805944443 0.073762021959 0 6.3285603523 0.0955632478 0
          7.2311973572 -0.091515049338 0 7.0438070297 0.16664898396 0
          4.7048592567 -0.0031719072722 0 0 0 0
          2.0623037815 -0.061173163354 0 3.9122173786 -0.0076641980559 0
          2.2748727798 0.022937331349 0 6.245267868 0.11608052999 0
          5.4869747162 0.024216387421 0 2.0571565628 -0.049035817385 0
          7.4700446129 -1.6356170213e-015 0 2.045330286 -0.043753240258 0
          2.0191988945 0.053232356906 0 3.8940627575 0.054929941893 0
          2.0345609188 -0.034935105592 0 4.6870312691 0.0063547291793 0
          7.4029903412 0.093327723444 0 6.8440513611 0.033992722631 0
          6.6241970062 0.15367779136 0 3.9021968842 0.0036843628623 0
          7.0285639763 -0.1078408882 0 2.0255482197 -0.024975063279 0
          6.383872509 0.087918460369 0 4.6803264618 0.058722764254 0
          7.3085579872 -0.10851660371 0 5.5318274498 0.032675195485 0
          5.661775589 0.064771607518 0 2.0195374489 -0.014511892572 0
          7.0974178314 0.12335775048 0 3.8947424889 0.012543627061 0
          4.6763114929 0.010863035917 0 7.5740871429 -2.9451526158e-015 0
          2.0174665451 -0.0043244520202 0 6.2029390335 0.091876536608 0
          2.6069600582 -0.019735420123 0 0 0 0
          2.5645489693 -0.021549478173 0 2.2292575836 0.021061131731 0
          6.7810435295 -0.050337251276 0 2.0150229931 0.045644424856 0
          2.5266239643 -0.017674151808 0 6.4141845703 0.056180942804 0
          5.5843896866 0.031362693757 0 7.0178599358 -0.16121917963 0
          3.8906314373 0.0173477754 0 2.4938328266 -0.014131194912 0
          3.8923916817 0.041220329702 0 7.4860057831 0.05281374231 0
          2.0196752548 0.0043894965202 0 6.6329908371 0.095729805529 0
          7.4029903412 -0.093327723444 0 2.4689438343 -0.0099413525313 0
          4.672516346 0.0094620548189 0 4.6824727058 0.037940043956 0
          5.653380394 0.032366476953 0 2.4520475864 -0.0058132424019 0
          7.1593523026 0.048074670136 0 2.025718689 0.010393129662 0
          3.8899343014 0.017111316323 0 7.6351385117 6.2160201049e-016 0
          6.4092917442 0.0040414095856 0 6.7089738846 -0.12586398423 0
          5.6361346245 0.018741866574 0 6.1907272339 0.035130511969 0
          2.4429371357 -0.0019808607176 0 7.0438070297 -0.16664898396 0
          0 0 0 4.6746044159 0.0020046983846 0
          0 0 0 0 0 0
          2.1884071827 0.01766682975 0 0 0 0
          2.0203909874 0.032846793532 0 2.0344583988 0.012729675509 0
          7.5344991684 0.0014550903579 0 0 0 0
          3.8971624374 0.019183749333 0 2.4408261776 0.0011753073195 0
          7.4860057831 -0.05281374231 0 6.6674809456 0.011174337007 0
          3.8921208382 0.011570964009 0 0 0 0
          4.6972537041 0.0048710103147 0 6.3693332672 -0.055174656212 0
          5.6767234802 -0.0045935367234 0 2.0442504883 0.010896188207 0
          7.6405091286 4.4075634696e-015 0 2.4441261292 0.0032275228295 0
          5.663122654 -0.017425298691 0 7.2089877129 -0.035098232329 0
          4.6804594994 -0.010896672495 0 6.650841713 -0.16524785757 0