# vtk DataFile Version 3.0
vtk output
ASCII
DATASET POLYDATA
POINTS 1041 float
40 -10 0 39 -10 0 40 -9 0 
39.1174 -8.5 0 38.3564 -9.10877 0 40 -8 0 
38 -10 0 39.1174 -7.5 0 37.5124 -8.99824 0 
38.1648 -8 0 37 -10 0 40 -7 0 
38.1306 -7.06988 0 39.0439 -6.5 0 36.5 -9.04387 0 
37.055 -7.83026 0 36 -10 0 40 -6 0 
35.9737 -8.1054 0 38.0829 -5.97674 0 37.2138 -6.47991 0 
35.5 -9.07145 0 39.0071 -5.5 0 35 -10 0 
40 -5 0 35.8896 -7.11449 0 37.2813 -5.59619 0 
35.0263 -8.1054 0 38.1083 -4.89175 0 34.5 -9.04387 0 
39.0071 -4.5 0 36.0075 -5.78216 0 40 -4 0 
34 -10 0 35.1098 -6.37039 0 36.4598 -4.93355 0 
37.1324 -4.52011 0 34.4102 -7.2049 0 38.0585 -4.03762 0 
33.9322 -8.10869 0 33.5 -9.04387 0 39.0071 -3.5 0 
33 -10 0 40 -3 0 34.7021 -5.35168 0 
34.0312 -6.21996 0 35.3963 -4.62893 0 33.5047 -7.13455 0 
36.1914 -3.95697 0 37.1553 -3.43402 0 32.9863 -8.06349 0 
38.1011 -2.94809 0 39.0923 -2.57005 0 32.5 -9.04387 0 
35.4367 -3.58866 0 32.5159 -7.26007 0 36.2903 -2.94432 0 
32 -10 0 40 -2 0 32.9886 -6.13316 0 
34.4646 -4.07176 0 37.1928 -2.34372 0 33.5626 -4.9614 0 
31.8955 -8.15215 0 38.2572 -1.86898 0 31.5 -9.1542 0 
39.1542 -1.5 0 35.416 -2.51941 0 32.5987 -5.16642 0 
34.4739 -3.0725 0 37.261 -1.53749 0 36.2777 -1.86029 0 
31 -10 0 40 -1 0 31.4302 -7.216 0 
33.5167 -3.56324 0 31.035 -8.18382 0 31.7184 -6.05654 0 
38.158 -0.991887 0 32.7344 -4.10447 0 30.5 -9.11742 0 
39.0923 -0.429945 0 36.286 -1.03492 0 34.4231 -2.05487 0 
35.3293 -1.43801 0 31.7138 -4.76812 0 33.5607 -2.47015 0 
30 -10 0 40 3.55271e-15 0 30.3507 -7.33976 0 
37.235 -0.35494 0 32.6099 -3.01911 0 30 -8.16479 0 
30.831 -5.29324 0 30.3674 -6.31822 0 31.743 -3.64563 0 
29.5 -9.11742 0 39.2885 0.516324 0 38.2577 0.44151 0 
36.3087 -0.014793 0 35.4378 -0.358572 0 33.5786 -1.40422 0 
34.4357 -0.803022 0 29.5 -7.21217 0 30.7998 -4.2081 0 
32.6171 -1.92122 0 29 -10 0 40 1 0 
31.7439 -2.57602 0 29 -8.16479 0 29.8563 -5.09954 0 
36.9914 0.945051 0 30.7908 -3.11001 0 28.5 -9.11742 0 
39.0923 1.57005 0 33.4601 -0.323719 0 32.5724 -0.967814 0 
34.3679 0.291643 0 35.5639 0.935692 0 28.8851 -6.01029 0 
29.9037 -3.74933 0 28.4065 -7.24576 0 31.6432 -1.48921 0 
38.0955 1.81767 0 28 -10 0 40 2 0 
28.1045 -8.11538 0 30.745 -2.12053 0 36.2364 1.83048 0 
27.5342 -8.98549 0 28.6959 -4.62177 0 39.0071 2.5 0 
32.6045 0.129589 0 29.8163 -2.65935 0 33.3795 0.772515 0 
27.8716 -6.27158 0 31.6416 -0.397736 0 37.1662 2.4118 0 
34.3456 1.53495 0 30.6898 -0.944844 0 27 -10 0 
40 3 0 27.7986 -5.28738 0 27.1009 -7.63627 0 
38.0585 3.03762 0 35.2591 2.32109 0 29.8026 -1.56596 0 
28.7537 -2.89142 0 31.5617 0.461718 0 36.1849 2.90316 0 
32.3838 1.18422 0 26.5 -9.04387 0 39.0071 3.5 0 
27.7591 -4.04638 0 37.1059 3.5 0 30.6033 0.150692 0 
34.3167 2.62178 0 26.6845 -5.96677 0 29.697 -0.535819 0 
26 -10 0 40 4 0 33.1882 2.2635 0 
28.7304 -1.53931 0 38.0585 3.96238 0 26.7979 -4.56123 0 
25.8352 -8 0 27.5587 -2.92267 0 25.6436 -9.10877 0 
34.9631 3.51473 0 25.8352 -7 0 39.0071 4.5 0 
30.9051 1.36766 0 27.7625 -2.02662 0 37.22 4.38849 0 
26.8154 -3.5 0 36.1188 4.21165 0 25.6293 -6.09354 0 
29.6574 0.720505 0 31.9197 2.57695 0 25 -10 0 
40 5 0 25.8286 -5.06118 0 33.5757 3.57075 0 
28.6984 -0.0359969 0 27.794 -0.993929 0 24.8826 -8.5 0 
26.7818 -2.4065 0 37.9351 5.17224 0 35.1575 4.53431 0 
24.8826 -7.5 0 25.8628 -4 0 39.0923 5.42995 0 
32.4831 3.51987 0 24.8826 -6.5 0 26.8423 -1.5175 0 
36.6495 5.33134 0 34.063 4.55519 0 30.6656 2.669 0 
25.8628 -3 0 24.8458 -5.5 0 29.6426 1.94726 0 
35.5505 5.30954 0 28.6859 1.30141 0 24 -10 0 
40 6 0 24 -9 0 31.3895 3.53899 0 
24.9102 -4.5 0 32.9672 4.47963 0 24 -8 0 
25.8848 -2.04374 0 38.2572 6.13102 0 27.6375 0.522258 0 
26.8404 -0.473732 0 24 -7 0 34.612 5.48336 0 
24.9102 -3.5 0 24 -6 0 39.1542 6.5 0 
30.5472 3.56011 0 31.9714 4.46517 0 29.5893 3.02304 0 
37.261 6.46251 0 33.5357 5.41738 0 36.0789 6.2708 0 
25.8946 -0.973736 0 24 -5 0 28.7245 2.51055 0 
24.9102 -2.5 0 23.1496 -8.30032 0 40 7 0 
23 -10 0 34.9916 6.25329 0 26.6139 0.513208 0 
30.8746 4.41402 0 23.1174 -7.5 0 24 -4 0 
38.158 7.00811 0 27.7794 2.01325 0 32.4497 5.44646 0 
23.1174 -6.5 0 24.9561 -1.5 0 25.8812 -5.32907e-15 0 
23.1542 -5.5 0 24 -3 0 33.9129 6.39114 0 
26.8291 1.51751 0 22.5 -9.07145 0 29.5998 4.11547 0 
36.3912 7.18006 0 39.0923 7.57005 0 31.3851 5.38607 0 
28.6622 3.60085 0 23.1174 -4.5 0 33.0584 6.34624 0 
35.4825 7.18011 0 24.9285 -0.5 0 27.7646 2.97871 0 
22.2416 -8.18163 0 24 -2 0 25.8812 1 0 
22 -10 0 40 8 0 34.6063 7.22879 0 
37.151 7.8587 0 31.9713 6.27679 0 23.0439 -3.5 0 
26.8244 2.5 0 38.1727 8.09827 0 29.9758 5.26157 0 
22.1838 -5.96499 0 21.894 -7.07498 0 22.3584 -4.92796 0 
24 -1 0 33.515 7.18521 0 24.9285 0.5 0 
28.6331 4.57312 0 21.5 -9.08984 0 25.8718 2.01751 0 
35.9825 8.12818 0 23.0272 -2.4454 0 39.1051 8.63371 0 
27.6687 4.06341 0 30.8836 6.33581 0 35 8.13721 0 
26.8002 3.4065 0 32.4238 7.23159 0 22.1306 -4.06988 0 
24 -3.55271e-15 0 23.1174 -1.5 0 24.9285 1.5 0 
40 9 0 21 -10 0 21.0175 -8.12818 0 
34 8.13721 0 25.8718 2.98249 0 38.3654 9.13395 0 
31.5097 7.22721 0 37.5 9.07145 0 21.3708 -4.88339 0 
21.08 -6.0745 0 28.7279 5.72417 0 23.1174 -0.5 0 
36.5 9.07145 0 24 1 0 29.6508 6.44307 0 
33.0325 8.13846 0 27.6927 5.12587 0 21.8892 -2.76907 0 
20.5 -9.07145 0 26.8338 4.5 0 24.9102 2.5 0 
35.5 9.08984 0 22.1154 -1.89554 0 20.5 -7.17555 0 
30.4183 7.22949 0 34.5 9.08984 0 25.8812 4 0 
21.1912 -3.51287 0 31.9441 8.19981 0 23.0439 0.5 0 
22.1648 -1 0 24 2 0 40 10 0 
20 -10 0 39 10 0 38 10 0 
19.9825 -8.12818 0 33.5 9.08984 0 37 10 0 
24.9285 3.5 0 30.9919 8.15804 0 28.5706 6.77998 0 
20.2636 -5.17122 0 29.3283 7.3274 0 27.699 6.21273 0 
19.9967 -6.25183 0 36 10 0 26.8002 5.5935 0 
22.1306 -0.0698753 0 21.2938 -1.65572 0 32.5701 9.09232 0 
23.0439 1.5 0 19.5 -9.08984 0 19.6094 -7.22984 0 
25.8812 5 0 24 3 0 35 10 0 
20.2461 -4.07185 0 20.5083 -2.54261 0 34 10 0 
24.9285 4.5 0 31.5 9.1542 0 19 -10 0 
23.1174 2.5 0 22.0829 0.976741 0 29.6309 8.28554 0 
21.1957 -0.56995 0 19 -8.13721 0 27.5443 7.12788 0 
33 10 0 24 4 0 25.9114 5.93882 0 
26.7008 6.65413 0 30.4299 9.09232 0 18.9174 -6.39006 0 
28.3182 7.94499 0 18.5 -9.08984 0 21.2138 0.520092 0 
32 10 0 22.1306 2.06988 0 20.2895 -1.21555 0 
24.9285 5.5 0 19.1702 -4.19123 0 18.5175 -7.18011 0 
23.0439 3.5 0 18.6402 -5.37078 0 19.3143 -2.83246 0 
24 5 0 31 10 0 21.2623 1.41671 0 
29.4982 9.29404 0 18 -10 0 22.1306 2.93012 0 
18.0175 -8.12818 0 20.2983 -0.0686251 0 26.9039 7.83139 0 
25.9009 7.07855 0 23.1174 4.5 0 19.3342 -1.74072 0 
18.0196 -6.22554 0 24.9929 6.5 0 28.4299 9.09232 0 
30 10 0 18.2153 -4.35905 0 17.5 -9.07145 0 
22.3552 4.04896 0 20.2868 1.01978 0 21.178 2.5 0 
24 6 0 19.3918 -0.652163 0 18.3417 -3.34203 0 
17.5143 -7.17621 0 27.5 9.0071 0 29 10 0 
23.1174 5.5 0 17.559 -5.23847 0 18.3937 -2.24528 0 
17 -10 0 20.4155 2.10062 0 17.0137 -8.1295 0 
25.7966 8.16974 0 19.4182 0.425563 0 24.9102 7.5 0 
21.3829 3.96564 0 22.1648 5 0 26.5 9.0071 0 
28 10 0 18.4117 -1.14609 0 24 7 0 
17.3635 -4.17418 0 16.9258 -6.25378 0 16.5701 -9.09232 0 
19.5159 1.47341 0 16.5734 -7.34111 0 20.3547 3.14419 0 
23.0071 6.5 0 18.4527 -0.089987 0 17.2935 -3.07072 0 
27 10 0 24.9102 8.5 0 25.6546 9.10142 0 
22.1154 5.89554 0 16 -10 0 17.452 -1.67811 0 
16.3955 -5.35858 0 24 8 0 19.4341 2.56702 0 
16.1437 -6.36089 0 15.9266 -8.21228 0 18.5185 1.03789 0 
21.1889 5.39528 0 23.0071 7.5 0 17.4803 -0.581123 0 
26 10 0 16.3758 -3.67625 0 15.5 -9.1542 0 
18.636 2.12867 0 20.3083 4.74094 0 15.4908 -7.26942 0 
19.4092 3.82504 0 17.4884 0.41118 0 16.3094 -2.58028 0 
24 9 0 23.1321 8.36154 0 21.8414 7.10242 0 
15.0987 -8.23132 0 21.117 6.36685 0 25 10 0 
15 -10 0 15.3332 -5.58154 0 17.7315 1.50739 0 
18.5764 3.18282 0 15.4171 -4.40625 0 16.2435 -1.4887 0 
22.1535 8.15349 0 15.3974 -3.19154 0 16.3711 -0.249731 0 
20.1819 6.15007 0 14.4299 -9.09232 0 24 10 0 
19.2843 5.07244 0 17.6551 2.60201 0 14.4126 -7.39081 0 
18.4977 4.24287 0 22.6193 9.10122 0 15.3437 -2.11025 0 
16.438 0.857734 0 20.5035 7.17159 0 14.5332 -4.85731 0 
14 -10 0 14.2607 -6.2501 0 14.0145 -8.11676 0 
17.587 3.64228 0 23 10 0 20.9863 8.1295 0 
14.4677 -3.77229 0 15.2626 -1.01643 0 16.4134 1.94646 0 
13.5 -9.04387 0 14.4233 -2.6889 0 21.4299 9.09232 0 
13.4868 -7.16337 0 15.3264 0.230463 0 18.7928 6.29812 0 
18.1338 5.42242 0 19.4106 7.1981 0 13.5744 -5.27786 0 
17.5179 4.73782 0 22 10 0 14.3622 -1.64273 0 
16.373 3.0374 0 20 8.11883 0 13.587 -4.40927 0 
13 -10 0 12.9563 -8.11523 0 15.2973 1.30064 0 
12.9941 -6.21036 0 20.5 9.07145 0 13.5382 -3.31527 0 
14.3956 -0.351021 0 12.5 -9.08984 0 12.5937 -7.20178 0 
21 10 0 19.0612 8.08862 0 13.4304 -2.22448 0 
15.2535 2.43837 0 16.13 4.08583 0 18.2856 7.24729 0 
17.5945 6.40905 0 14.3534 0.73803 0 12.6445 -4.93722 0 
17.0094 5.77377 0 19.5 9.07145 0 12 -10 0 
12.6245 -3.91886 0 13.2849 -1.06449 0 11.8373 -7.89437 0 
15.1993 3.50944 0 14.3362 1.83336 0 20 10 0 
12.6175 -2.79678 0 16.0802 5.1834 0 11.7808 -6.66631 0 
11.5 -9.04387 0 17.9481 8.10106 0 13.2844 0.123463 0 
11.7224 -5.53348 0 12.5542 -1.787 0 16.3754 6.27576 0 
18.5 9.0071 0 14.2691 2.92678 0 15.157 4.58763 0 
11.6641 -4.44259 0 13.404 1.28456 0 16.9063 7.38882 0 
11 -10 0 19 10 0 11.6798 -3.36743 0 
10.9498 -8.09821 0 14.2257 4.01615 0 13.3645 2.30891 0 
10.7608 -7.12526 0 15.1052 5.68459 0 16.9833 8.37889 0 
17.5701 9.09232 0 11.6392 -2.0438 0 10.7765 -6.03259 0 
10.5 -9.04387 0 12.4809 0.705911 0 10.7632 -5.06047 0 
18 10 0 10.7873 -3.96721 0 13.3228 3.40512 0 
11.6824 -0.505152 0 14.1845 5.08591 0 12.4244 1.76133 0 
15.3088 7.01427 0 10 -10 0 15.9919 8.15804 0 
9.93012 -8.13059 0 10.6066 -2.62837 0 13.3399 4.42814 0 
16.5 9.1542 0 9.83559 -6.54378 0 14.2499 6.13846 0 
12.3999 2.81203 0 17 10 0 9.81273 -5.56592 0 
9.5 -9.11742 0 11.5723 1.09742 0 10.6946 -1.17805 0 
9.84043 -4.47373 0 12.5757 3.8944 0 13.3929 5.52387 0 
9.82908 -3.48249 0 14.9017 8.17273 0 11.6041 2.41834 0 
9 -10 0 15.4299 9.09232 0 9.72747 -2.66321 0 
10.5766 0.40996 0 16 10 0 8.7952 -8.23699 0 
8.87182 -7.01751 0 9.83366 -1.57866 0 8.67652 -9.15644 0 
[...]
POINT_DATA 1041
FIELD FieldData 2
PRESSURE 1 1041 float
0 0.119955 0 0.0628325 0.130848 0 0.0868055 0.0392734 0.128048 
0.0738663 0.103365 0 0.0196689 -0.00945456 0.119938 0.0763931 0.135021 0 
0.102801 -0.00868098 0.0314899 0.126279 -0.0283558 0.129409 0 0.0870057 0.00413102 
0.11972 -0.0321504 0.112213 -0.0494703 0.0651939 0 0.11825 0.117586 0.0062514 
-0.0119552 0.118307 -0.0613319 0.121225 0.0914162 -0.0780744 0.0900622 0 0.124068 
0.144757 0.0767133 0.126146 0.0372328 -0.0137718 0.117487 -0.0561553 -0.055248 0.0783064 
0.109325 0.108461 0.0521113 0.0927479 0 0.158997 0.156285 -0.0089845 0.178863 
0.0792436 -0.00834906 0.0539206 -0.0175933 0.117258 0.169138 0.189189 0.0385545 0.0580643 
0.0457062 0 0.0757956 0.207029 0.0516706 0.136767 -0.00337973 0.213824 0.00883837 
-0.0152489 0.109707 0.172392 0.121006 0.165873 0.204529 0.00468356 0 0.0215793 
0.0229745 0.207519 -0.00699837 0.0701275 0.0489225 0.180909 -0.0330583 -0.0370509 0.00968374 
0.0806635 0.137211 0.165809 0.148885 -0.0415991 0.0983075 0.196127 -0.0362097 0 
0.187564 -0.0606388 0.0122765 0.0368706 0.106512 -0.0840243 -0.0517996 0.155476 0.154357 
0.166697 0.0812267 -0.0664707 0.0603292 -0.0686608 0.14466 -0.0340321 -0.0895154 0 
-0.0858098 0.0944928 0.0582569 -0.108257 -0.0970999 -0.0843912 0.15993 0.0141619 0.209893 
-0.127484 0.103228 0.00237749 0.15519 0.107758 -0.0610623 0 -0.136396 -0.101602 
-0.0873353 0.125219 0.0374597 -0.118208 0.0830488 0.0396394 0.20857 -0.0951483 -0.0910911 
-0.176464 -0.0619373 0.0659465 0.196997 -0.144094 -0.0314526 -0.0648511 0 0.203059 
-0.0887678 -0.091605 -0.170646 -0.0219069 -0.214762 -0.128262 0.163181 -0.0621392 -0.10454 
0.110331 -0.212768 -0.0529763 -0.214912 0.063045 -0.0648709 -0.0277929 0.180665 -0.00649414 
0 -0.0999326 0.213309 -0.0716378 -0.168553 0.0379393 -0.206024 -0.0688013 0.113674 
0.0323011 -0.136797 -0.0664846 0.233292 0.0152392 -0.171534 0.00233979 0.191833 0.0936171 
-0.153686 0.00886576 -0.0221361 0.0918689 -0.0982284 0.0571125 0 0.112027 0.186468 
-0.0145882 0.213904 0.0903177 -0.137984 -0.0581331 -0.140675 -0.114808 0.09383 0.13843 
-0.031884 0.115112 -0.0511643 0.120911 0.199196 -0.0254513 -0.0053795 0.177492 0.0423859 
-0.0842318 0.097356 -0.140395 -0.0522408 0.177138 0 0.180354 0.105976 -0.147634 
0.127706 0.169168 0.0985192 -0.0222796 -0.220428 0.185424 0.199289 -0.014109 -0.0626393 
0.193111 0.0536571 0.125952 -0.199035 0.205439 -0.00622278 0.0512964 -0.00498148 0.146428 
-0.164176 0.203132 0.147778 0.0804056 -0.00243817 -0.246803 0.205689 0.0728737 -0.0966762 
0.203704 0 0.0941142 0.0424802 0.144076 0.17725 -0.241747 0.0268145 0.0299512 
0.246697 0.235872 0.243045 0.047721 0.112229 0.0131109 -0.111828 0.171045 -0.141649 
0.0780044 0.146906 0.0276145 -0.212955 0.0826154 0.0922813 -0.237128 0.10406 0.215654 
0.0651505 0.094063 -0.0238632 0 0.150562 0.176858 0.0937428 -0.171034 0.0745339 
0.0800338 0.0749135 0.256734 0.217636 -0.100924 0.0782371 0.0766987 0.0650574 9.6476e-05 
0.095789 -0.154721 0.212156 0.100649 -0.199294 -0.0460319 0.0804592 0.151972 0.152536 
0.0315413 0.0804134 -0.148883 0.183519 0.0688014 0.0908278 0.104322 0.0518496 0 
0.0764595 0.0573567 0.0518102 0.0811131 0.0740879 0.0764201 -0.0378095 0.0484638 -0.0880342 
0.194091 -0.0260413 -0.15325 0.123187 0.0879657 -0.15317 0.0872397 0.14992 0.0738225 
0.107866 0.00429155 0.046884 -0.117742 0.0844035 0.0912811 0.151432 0.103741 0.0889163 
-0.0221036 0.0383503 -0.0300332 0.136961 0.112973 -0.0213997 0.0926622 -0.0394703 -0.112314 
0.0823495 0.0936811 -0.0988005 -0.145446 0.0141933 -0.0345146 -0.0914136 -0.11815 0.0743642 
0.0764449 0.18312 0.0425716 0.000397083 -0.0093811 -0.114739 0.188905 -0.0875228 -0.0313745 
0.118074 0.0307464 0.133767 -0.0170743 -0.157323 0.168253 -0.170908 0.0457449 -0.0974374 
-0.0869592 0.213033 -0.0387924 -0.192946 -0.00104571 -0.0792013 0.0369207 -0.213685 -0.241452 
0.239217 0.0446427 0.181717 0.120946 -0.0517389 -0.194538 -0.25915 -0.108466 -0.0488118 
0.211866 -0.310097 -0.1985 -0.275233 0.0859495 -0.29014 -0.0340905 -0.0555118 0.0228784 
0.224619 0.249001 -0.11293 -0.0811197 -0.193061 0.103234 -0.411433 -0.382751 -0.338283 
-0.0273542 -0.375431 0.118956 0.223253 -0.170671 -0.448452 -0.0840771 0.0435908 -0.141051 
0.266354 -0.369678 -0.361738 -0.527087 0.102344 -0.0208014 -0.483575 -0.409274 -0.181528 
0.252769 0.190476 -0.319481 -0.0908222 -0.618004 -0.440924 -0.169278 0.150835 -0.500261 
-0.00835201 -0.321442 -0.638797 0.120205 0.188118 0.233713 -0.488014 0.221125 -0.00167074 
-0.460559 -0.640599 -0.323337 -0.16001 -0.735978 -0.601447 0.214139 -0.804775 -0.506806 
0.114862 -0.52894 0.0632086 -0.0152083 -0.388105 -0.594057 -0.19035 0.217587 -0.761728 
-0.508076 0.128076 -0.784794 -0.532909 -0.67472 -0.571117 -0.401597 0.204615 0.160425 
-0.863133 -0.682635 -0.621117 -0.574275 -0.838897 0.159415 -0.637286 -0.627648 -0.106603 
-0.249846 -0.0157988 -0.750734 -0.403548 0.205609 -0.746721 -0.695055 0.0495232 -0.830517 
-0.573125 -0.593967 -0.700331 -0.70528 0.0816784 -0.811062 -0.629059 -0.587307 -0.625226 
0.147382 -0.0637009 -0.699671 -0.824328 -0.701571 -0.178224 -0.309583 -0.646226 -0.70038 
-0.437966 -0.0368001 -0.568799 -0.692612 -0.574342 -0.58993 -0.863102 -0.766149 0.0572035 
-0.692236 -0.620008 -0.604041 -0.566662 -0.208506 -0.498326 -0.583824 -0.464011 -0.485716 
-0.157543 -0.876249 -0.814468 -0.517708 -0.604916 -0.365795 -0.546723 -0.0774769 -0.473314 
-0.536494 -0.884141 -0.71619 -0.49215 -0.703219 -0.323582 -0.258821 -0.398898 -0.470453 
-0.520729 -0.33823 -0.384713 -0.19069 -0.322104 -0.790882 -0.328382 -0.831235 -0.517877 
-0.573084 -0.500077 -0.446017 -0.473833 -0.29704 -0.807169 -0.379412 -0.368067 -0.713872 
-0.617883 -0.301244 -0.276549 -0.472478 -0.326191 -0.296911 -0.1875 -0.677013 -0.760404 
-0.166565 -0.545113 -0.416249 -0.460555 -0.490521 -0.194733 -0.314557 -0.409056 -0.423208 
-0.344677 -0.292037 -0.465122 -0.685086 -0.240659 -0.670736 -0.456748 -0.139186 -0.2879 
-0.251139 -0.0916431 -0.516077 -0.679812 -0.556315 -0.129556 -0.599275 -0.422391 -0.491791 
-0.315 -0.226952 -0.403736 -0.248452 -0.37314 -0.290582 -0.243834 -0.215679 -0.184138 
-0.651856 -0.312205 -0.571281 -0.618158 -0.136663 -0.24647 -0.240209 -0.610436 -0.122103 
-0.571054 -0.365748 -0.187429 -0.573633 -0.398435 -0.237625 -0.389074 -0.399258 -0.38454 
-0.179205 -0.197902 -0.297074 -0.199323 -0.259797 -0.220585 -0.602001 -0.606081 -0.186747 
-0.456683 -0.214931 -0.597296 -0.150927 -0.239088 -0.212852 -0.268089 -0.381821 -0.226731 
-0.413118 -0.345806 -0.489176 -0.392047 -0.212673 -0.118241 -0.359843 -0.201643 -0.582292 
-0.338224 -0.549606 -0.584305 -0.384968 -0.192814 -0.200742 -0.346647 -0.152191 -0.343701 
-0.22946 -0.163644 -0.308624 -0.371623 -0.253495 -0.258757 -0.305822 -0.408085 -0.4433 
-0.470023 -0.246999 -0.541443 -0.218509 -0.172136 -0.414069 -0.571969 -0.427128 -0.265948 
-0.38695 -0.295638 -0.242993 -0.242405 -0.357952 -0.278809 -0.389798 -0.277609 -0.309511 
-0.416588 -0.2324 -0.34652 -0.274278 -0.486843 -0.521092 -0.349369 -0.381915 -0.453425 
-0.311185 -0.287105 -0.376001 -0.178826 -0.398005 -0.426684 -0.306949 -0.254692 -0.352744 
-0.384868 -0.481875 -0.397627 -0.481274 -0.417853 -0.0980095 -0.309169 -0.313216 -0.116008 
-0.453458 -0.467804 -0.403059 -0.229795 -0.306901 -0.355161 -0.441599 -0.297088 -0.458582 
-0.090667 -0.0039051 -0.339109 -0.463444 -0.463291 -0.27046 -0.488073 -0.507292 -0.404041 
0.0892473 -0.227353 0.0884668 -0.474791 -0.484109 0.0168492 -0.439914 -0.130701 -0.27264 
-0.526593 -0.173296 0.216513 -0.340886 -0.192233 0.161322 -0.457432 0.0428355 -0.446402 
-0.117378 -0.329129 -0.44349 0.3097 -0.137141 0.32034 -0.453018 0.245249 0.110985 
-0.213269 0.0371879 -0.437198 -0.0261745 -0.397952 -0.419884 0.453896 -0.319269 0.434479 
0.00898497 -0.394624 -0.202827 0.313631 0.0251151 0.532624 0.588666 -0.0132463 -0.165719 
0.290222 -0.260872 -0.0704039 0.540631 0.181481 -0.36864 -0.300749 -0.282121 -0.323009 
0.140396 0.661663 0.712225 -0.107184 -0.0384731 0.163571 0.162863 0.663977 0.128911 
0.720478 0.803146 0.0346317 0.821912 0.480309 -0.186906 -0.266299 -0.120536 0.119792 
-0.0377438 0.349699 0.793946 0.0687348 0.978761 0.343592 0.165155 0.320288 0.162584 
0.927241 0.902755 0.82283 0.317322 0.751857 0.0757122 -0.106359 0.00389466 0.273905 
0.62495 0.330508 0.230278 0.478361 0.703707 0.832833 0.391009 0.363903 0.43366 
1.0347 0.903266 0.419202 0.229313 0.0862117 0.792456 0.500464 0.581056 0.706136 
0.34302 0.607949 0.440046 0.586771 0.496592 0.3761 0.519832 0.415042 0.715512 
0.63858 0.413944 0.641626 0.720167 0.688868 0.456504 0.32537 0.690477 0.586451 
0.442161 0.16241 0.595071 0.0878326 0.0403696 0.503754 0.486633 0.901154 -0.317614 
-0.200206 0.419256 0.623813 -0.0160959 0.544706 1.01919 0.239883 0.674165 0.828904 
0.406867 0.207886 -0.369548 0.842709 0.967895 0.403591 0.104489 -0.776225 0.406285 
-0.995457 0.90539 -0.964299 -0.797697 0.719599 -0.736037 0.528468 0.931469 0.814221 
0.237296 -0.232296 0.918773 0.572494 -0.901417 0.0476529 -1.20799 0.189423 0.480885 
0.308181 -1.39064 -1.41643 0.228102 -1.27199 -1.20223 0.77802 0.577594 0.0691504 
-0.791002 0.740021 0.322251 0.575771 -0.49478 -1.19017 -0.428662 0.0305763 -1.27088 
0.128705 -1.31683 -0.383028 -1.26458 -0.412772 0.593209 -1.03546 -1.15091 0.344174 
0.100417 -0.755175 0.590935 -0.817191 -0.360652 -0.291306 -0.658623 -0.556551 -1.12675 
-1.16987 -0.553217 0.172236 -1.05778 -1.00445 -1.16735 -0.861286 -1.00182 0.166109 
-1.27089 -1.20353 -0.239402 -0.949145 -0.11741 -0.340995 -0.847905 -0.306717 -1.2652 
-0.7166 -0.509207 -1.23841 -0.958126 -1.43244 -0.618385 -0.881772 -0.86195 -0.8983 
-1.02918 -0.411192 -1.34745 -0.806196 -1.05502 -1.14102 -2.19993 -1.4149 -1.44246 
-1.23128 -0.859797 -1.25206 1.5024 1.07992 -0.286466 -3.53757 -0.930054 -1.30608 
-0.901982 -0.893745 -0.987496 -0.904754 -0.984203 -1.3648 -4.03169 -2.75573 -1.21448 
-3.64106 0.892677 -1.26286 -1.24213 1.39596 5.09185 1.43073 -1.19914 -1.4489 
-1.46781 -8.6727 -1.06957 -1.206 -2.215 -1.59134 -1.12126 4.94946 -1.38257 
-0.987563 1.34896 -1.04435 -3.65652 -1.12362 -0.995173 -0.907085 -2.78726 -1.36519 
-0.882813 -0.999866 -0.966509 -0.895989 -0.89775 -0.93213 
VELOCITY 3 1041 float
0 0 0 0 0 0 1.66375 0.0204607 0 
2.33088 0.0439581 0 1.57806 0.0368378 0 2.80924 0.0560062 0 
0 0 0 3.17788 -0.0108924 0 1.75598 0.00572299 0 
2.68914 -0.00345211 0 0 0 0 3.71275 -0.0289111 0 
3.62522 -0.00960861 0 4.22267 -0.0183314 0 1.70496 0.0207003 0 
2.82637 -0.0134047 0 0 0 0 4.69592 -0.0289481 0 
2.52387 -0.00995013 0 4.71006 -0.0137259 0 4.23246 -0.00680182 0 
1.67585 -0.00975837 0 5.08602 -0.023808 0 0 0 0 
5.4758 -0.0514933 0 3.60415 -0.0042663 0 5.0474 0.013655 0 
2.52424 -0.0124585 0 5.55166 0.0105199 0 1.69645 -0.0145549 0 
5.81274 -0.0204116 0 4.93411 0.02098 0 6.1299 -0.0614091 0 
0 0 0 4.38713 0.0126143 0 5.58903 0.0529429 0 
5.85931 0.0593502 0 3.51696 -0.00893916 0 6.14491 0.0440868 0 
2.52815 -0.0247842 0 1.67215 -0.015265 0 6.43322 0.00231599 0 
0 0 0 6.69927 -0.0575535 0 5.36239 0.0511752 0 
4.58951 0.0153665 0 5.87806 0.0905147 0 3.60956 -0.0162766 0 
6.29994 0.1189 0 6.5696 0.11931 0 2.57805 -0.0277465 0 
6.77796 0.0948065 0 6.93591 0.0237313 0 1.63945 -0.0067037 0 
6.56212 0.139421 0 3.48573 -0.0199431 0 6.85261 0.161506 0 
0 0 0 7.20253 -0.0520081 0 4.71455 0.00155913 0 
6.30683 0.106154 0 7.06449 0.159351 0 5.72569 0.0556289 0 
2.48953 -0.0290324 0 7.24871 0.0991205 0 1.46713 -0.00782875 0 
7.40544 0.0184151 0 7.02085 0.158555 0 5.58038 0.0190683 0 
6.82541 0.121234 0 7.31461 0.136538 0 7.19671 0.162892 0 
0 0 0 7.50565 -0.0159455 0 3.54248 -0.0191289 0 
6.61293 0.0671538 0 2.46064 -0.0213144 0 4.81601 -0.00875841 0 
7.4971 0.0615979 0 6.29499 0.0314454 0 1.48825 -0.0194264 0 
7.5894 0.0155571 0 7.31912 0.106271 0 7.09871 0.0979805 0 
7.20651 0.119539 0 5.87926 -0.0175254 0 6.99383 0.0388146 0 
0 0 0 7.59673 0.0158965 0 3.40235 -0.0168349 0 
7.49162 0.0339394 0 6.79724 -0.0254662 0 2.49188 -0.0229977 0 
5.47121 -0.0377675 0 4.5401 -0.0195717 0 6.48746 -0.0623745 0 
1.46025 -0.0104465 0 7.58694 0.0142732 0 7.58489 -0.0252568 0 
7.39616 -0.00327343 0 7.29869 0.0317301 0 7.14194 0.0155908 0 
7.19576 0.0482265 0 3.54803 -0.0121028 0 6.16191 -0.0883724 0 
7.07429 -0.0627893 0 0 0 0 7.4919 0.0497407 0 
6.89807 -0.122587 0 2.4968 -0.0187101 0 5.58464 -0.0574444 0 
7.43599 -0.0992345 0 6.65562 -0.153475 0 1.44324 -0.0135421 0 
7.36211 0.00109777 0 7.16961 0.00287748 0 7.17442 -0.04994 0 
7.22113 -0.0210725 0 7.30387 -0.0964161 0 4.82294 -0.0189561 0 
6.33272 -0.14618 0 3.51332 -0.00949969 0 7.16307 -0.134259 0 
7.27916 -0.0842519 0 0 0 0 7.19589 0.0816789 0 
2.55386 -0.00377545 0 7.01833 -0.195396 0 7.18643 -0.164364 0 
1.60691 -0.00414712 0 5.81441 -0.0829337 0 7.00792 0.00452883 0 
7.21194 0.0192089 0 6.78739 -0.195956 0 7.19808 0.00728168 0 
4.56 -0.00474106 0 7.29026 -0.036983 0 7.06294 -0.162092 0 
7.16017 -0.0869781 0 7.3477 -0.124323 0 0 0 0 
6.76526 0.10018 0 5.33518 -0.0158385 0 3.08907 0.0214998 0 
6.77801 -0.0849915 0 7.05493 -0.156693 0 7.25171 -0.176482 0 
6.68228 -0.178538 0 7.2877 0.0698196 0 6.89301 -0.184164 0 
7.18702 0.0793784 0 1.53338 -0.0103119 0 6.51091 0.0213576 0 
6.069 -0.06254 0 6.56644 -0.136746 0 7.44333 0.0250854 0 
6.96076 -0.107524 0 4.84594 0.0281691 0 7.54552 -0.0703964 0 
0 0 0 6.20063 0.107498 0 7.02771 0.00214883 0 
7.34997 -0.118236 0 6.25354 -0.0534686 0 5.76627 0.000550357 0 
2.73889 0.0329664 0 6.66275 -0.0416392 0 1.44493 -0.00239056 0 
6.65214 -0.150013 0 3.76733 0.0418369 0 5.85635 0.0367445 0 
7.2455 0.18992 0 7.1404 -0.0377238 0 6.01215 -0.0780836 0 
6.36554 0.0116743 0 6.20962 -0.127676 0 4.72151 0.0665058 0 
7.54371 0.12107 0 6.92587 0.138395 0 0 0 0 
5.50726 0.0910716 0 5.45168 0.0539517 0 6.64767 -0.0631356 0 
7.7292 0.001071 0 7.59651 -0.0119449 0 2.25019 0.0525167 0 
6.98658 0.0732229 0 5.39688 -0.0115405 0 6.03907 -0.107519 0 
3.2387 0.030104 0 6.10673 0.073312 0 5.16562 0.0542958 0 
6.64115 0.0478196 0 4.34725 0.0702605 0 7.40091 0.092869 0 
5.31161 -0.0487621 0 6.07939 -0.0734476 0 6.86864 0.241984 0 
6.70712 0.130172 0 5.16492 0.0705788 0 7.16713 0.244472 0 
5.40282 -0.0576665 0 7.49692 0.128689 0 0 0 0 
4.69644 0.0734519 0 1.66663 0.0373232 0 6.56428 0.137837 0 
5.8368 0.0969915 0 6.14665 -0.0215413 0 2.69884 0.0113923 0 
7.19967 0.173247 0 4.53883 0.0161783 0 7.77355 0.00996963 0 
7.67755 0.0406469 0 3.85444 0.0545589 0 5.30799 -0.0414469 0 
6.46784 0.156707 0 4.78566 0.0606683 0 4.21932 0.035497 0 
6.47094 0.177663 0 6.1249 0.0358659 0 6.64352 0.240247 0 
4.25756 0.00544265 0 5.41283 -0.0320321 0 4.46918 -0.00484111 0 
7.51538 0.139237 0 5.54221 0.081253 0 6.91966 0.184344 0 
7.02772 0.210346 0 2.34638 0.0259455 0 3.75201 0.0532685 0 
0 0 0 4.52456 -0.004782 0 7.70236 -0.0396196 0 
6.08255 0.0894358 0 3.32262 0.0243664 0 6.21136 0.133516 0 
3.73601 0.0155876 0 7.2283 0.0494089 0 5.40373 -0.00722524 0 
4.35232 0.0400291 0 7.34968 0.208366 0 7.61005 0.0175356 0 
5.19564 0.0425093 0 6.81271 0.188011 0 4.42095 -0.00176501 0 
7.44496 -0.0764383 0 1.62774 0.000376878 0 6.13178 0.153328 0 
3.5751 0.0135843 0 3.19611 0.0317928 0 5.43962 0.0258425 0 
6.29553 0.165814 0 5.92981 0.0822044 0 4.49036 -0.00068696 0 
3.59032 0.019091 0 7.43984 0.0959313 0 6.64405 0.075087 0 
2.4866 0.00316995 0 7.22102 0.215363 0 7.54213 -0.132909 0 
0 0 0 2.87928 -0.0137746 0 3.55505 0.0191298 0 
2.91615 0.00868356 0 4.58026 0.00382622 0 6.56804 0.119493 0 
6.97436 -0.0713156 0 2.69124 0.0145857 0 5.49602 0.0603196 0 
4.81284 -0.00171987 0 3.81098 0.00243522 0 5.66626 0.0212034 0 
7.30487 0.147009 0 3.61307 0.0150283 0 7.44538 -0.0761129 0 
5.82887 0.109912 0 1.58954 -0.0210941 0 7.2397 -0.185678 0 
2.64163 0.0212717 0 7.10292 0.159579 0 2.26771 -0.0185018 0 
6.0336 0.0806991 0 4.52967 0.0210557 0 2.63027 0.0258126 0 
6.42729 -0.0207598 0 3.58206 0.0181115 0 6.2456 0.037648 0 
7.29115 0.0144343 0 7.22525 0.128718 0 7.36094 -0.207196 0 
1.78793 0.00105242 0 0 0 0 2.56624 -0.0272647 0 
2.63057 0.0251978 0 6.74846 -0.145556 0 1.60176 -0.0338833 0 
3.59923 0.0235261 0 1.70712 0.00278738 0 5.72593 -0.0471416 0 
4.70335 -0.0477173 0 5.07682 0.0446746 0 7.20536 0.0601464 0 
1.70561 0.00253991 0 7.29867 -0.136001 0 4.41948 0.0401863 0 
2.63052 0.0245005 0 5.46141 0.0364566 0 7.00565 0.0414867 0 
1.58225 -0.0183596 0 5.78337 0.0108243 0 7.05747 -0.224856 0 
1.66133 0.00972334 0 7.15313 0.047784 0 3.69383 -0.042006 0 
3.60068 0.0310399 0 1.63634 0.0131583 0 6.11183 -0.076184 0 
6.60576 -0.0292085 0 2.56637 0.0286773 0 7.16611 -0.0331238 0 
7.18177 0.0284275 0 7.22458 -0.211935 0 0 0 0 
0 0 0 0 0 0 0 0 0 
2.56219 -0.0413661 0 1.61195 0.0116626 0 0 0 0 
6.49726 -0.161718 0 2.60834 0.0258383 0 4.05766 0.0220873 0 
5.46661 -0.102498 0 3.48809 0.0249507 0 4.61457 0.00924517 0 
4.51291 -0.0907911 0 0 0 0 5.13337 -0.0180789 0 
7.12483 0.00938972 0 7.16581 -0.0465853 0 1.58179 0.0108537 0 
7.22143 -0.119143 0 1.52072 -0.0204071 0 3.60872 -0.0636503 0 
5.4817 -0.0472045 0 6.85793 -0.193132 0 0 0 0 
6.29769 -0.132235 0 7.05339 -0.133814 0 0 0 0 
5.83278 -0.100694 0 1.46977 0.0120965 0 0 0 0 
7.10115 -0.145181 0 7.13851 0.00475037 0 2.45689 0.0252385 0 
7.17119 -0.0422104 0 2.53879 -0.0479083 0 3.68515 -0.00249584 0 
0 0 0 6.22412 -0.135556 0 4.86825 -0.0546642 0 
4.171 -0.017262 0 1.5221 0.0107689 0 4.34359 -0.106265 0 
2.83488 0.0169998 0 1.47924 -0.0230174 0 7.1564 0.0391528 0 
0 0 0 7.17717 -0.0379551 0 7.21282 -0.143044 0 
5.17448 -0.0660479 0 6.18394 -0.190222 0 3.62142 -0.0779718 0 
6.60324 -0.122075 0 5.26145 -0.155107 0 6.91651 -0.229956 0 
5.54207 -0.0781576 0 0 0 0 7.15445 0.0925211 0 
1.21449 0.00874532 0 0 0 0 6.92736 -0.0403599 0 
2.53106 -0.0445029 0 7.26666 -0.00868523 0 2.96834 -0.0107858 0 
3.74203 -0.0257565 0 5.93593 -0.0679898 0 7.1871 -0.23891 0 
4.45522 -0.115555 0 4.382 -0.0648018 0 1.48463 0.0116362 0 
0 0 0 5.99732 -0.204643 0 1.46459 -0.016583 0 
6.29461 -0.0382584 0 7.23758 0.138672 0 7.10803 0.0709931 0 
4.8142 -0.0566404 0 7.37978 -0.106552 0 6.63671 -0.270775 0 
3.58005 -0.0697586 0 1.59397 0.00671585 0 0 0 0 
5.20769 -0.0325913 0 5.32156 -0.158643 0 7.09819 -0.285396 0 
0 0 0 7.12643 0.189172 0 2.51053 -0.0419205 0 
2.61703 -0.0391082 0 7.40072 0.078424 0 3.28005 -0.025057 0 
6.37589 0.0469578 0 5.60271 0.00867273 0 1.59274 0.00814053 0 
0 0 0 7.43741 -0.18015 0 3.90494 -0.0482062 0 
6.0593 -0.224715 0 4.38448 -0.111421 0 1.40185 -0.0103134 0 
7.26229 0.226194 0 3.37597 -0.0631793 0 6.83518 0.15418 0 
4.39776 -0.023318 0 7.58376 -0.0105692 0 6.76274 -0.276072 0 
0 0 0 2.29203 -0.0567667 0 1.46262 -0.00960988 0 
4.90808 0.0276592 0 0 0 0 7.38843 -0.218852 0 
5.17176 -0.132102 0 2.72477 -0.00600206 0 7.00926 0.269869 0 
4.26068 -0.0990656 0 2.39163 -0.0418085 0 7.47873 0.184217 0 
5.32165 0.0872156 0 3.36387 -0.0152569 0 7.68947 -0.0786754 0 
0 0 0 6.35348 -0.195199 0 1.28154 -0.0150152 0 
7.15954 0.297489 0 5.84227 0.140455 0 3.41057 -0.0741459 0 
6.44403 0.216946 0 7.73213 0.0741889 0 7.03252 -0.202816 0 
1.70301 -0.0420442 0 2.2984 -0.0198543 0 3.82267 0.017874 0 
2.35258 -0.0386605 0 4.47214 0.0655889 0 0 0 0 
0 0 0 4.95804 -0.101004 0 7.45568 0.236939 0 
6.72953 0.295548 0 5.83733 -0.108571 0 7.5949 -0.116642 0 
2.53427 0.00574709 0 6.66476 -0.0820438 0 7.8785 -0.0132766 0 
4.64192 0.102535 0 1.32461 -0.0194663 0 0 0 0 
5.52762 0.162961 0 6.99094 0.308833 0 3.2395 -0.0527645 0 
6.11782 0.229338 0 1.61888 0.00320789 0 7.3465 -0.0245572 0 
7.80652 0.100634 0 3.72179 0.0612217 0 5.55119 -0.0542613 0 
0 0 0 4.35548 -0.0745853 0 2.4677 -0.0411293 0 
6.43605 0.275726 0 0 0 0 2.57129 0.0397748 0 
6.31628 0.0325025 0 7.78895 0.000825924 0 7.38315 0.195499 0 
1.35559 -0.0108596 0 7.04108 0.115206 0 1.61063 0.0245764 0 
3.44588 -0.0559103 0 7.95487 0.00667933 0 4.45631 0.116714 0 
5.17542 0.160455 0 3.65891 0.0743602 0 5.25 0.00067017 0 
5.68369 0.193583 0 0 0 0 7.56613 0.130196 0 
6.75474 0.232753 0 2.57688 0.0520111 0 5.96772 0.0897698 0 
0 0 0 2.4483 -0.0381334 0 7.73679 0.00621365 0 
4.43209 -0.0288989 0 1.59811 0.0272869 0 6.71022 0.234268 0 
7.8797 0.0419881 0 1.26627 -0.00298246 0 3.40773 -0.0314881 0 