# vtk DataFile Version 3.0
vtk output
ASCII
DATASET POLYDATA
POINTS 1071 float
40 10 0 39 10 0 40 9 0 
39 9 0 40 8 0 38 10 0 
38 9 0 39 8 0 38 8 0 
40 7 0 37 10 0 37 9 0 
39 7 0 38 7 0 37 8 0 
40 6 0 36 10 0 36 9 0 
39 6 0 37 7 0 36 8 0 
38 6 0 36 7 0 40 5 0 
35 10 0 37 6 0 39 5 0 
35 9 0 35 8 0 38 5 0 
36 6 0 35 7 0 37 5 0 
34 10 0 40 4 0 39 4 0 
34 9 0 38 4 0 34 8 0 
36 5 0 35 6 0 34 7 0 
37 4 0 33 10 0 40 3 0 
35 5 0 33 9 0 39 3 0 
36 4 0 34 6 0 33 8 0 
38 3 0 33 7 0 37 3 0 
35 4 0 34 5 0 40 2 0 
32 10 0 36 3 0 32 9 0 
39 2 0 33 6 0 32 8 0 
38 2 0 34 4 0 37 2 0 
32 7 0 33 5 0 35 3 0 
36 2 0 32 6 0 40 1 0 
31 10 0 31 9 0 39 1 0 
34 3 0 31 8 0 33 4 0 
38 1 0 35 2 0 32 5 0 
31 7 0 37 1 0 31 6 0 
36 1 0 33 3 0 40 0 0 
34 2 0 30 10 0 32 4 0 
30 9 0 39 0 0 30 8 0 
38 0 0 31 5 0 35 1 0 
30 7 0 37 0 0 33 2 0 
32 3 0 36 0 0 30 6 0 
31 4 0 34 1 0 29 10 0 
40 -1 0 29 9 0 39 -1 0 
29 8 0 30 5 0 38 -1 0 
35 -2.22045e-16 0 32 2 0 37 -1 0 
31 3 0 29 7 0 33 1 0 
34 -4.44089e-16 0 30 4 0 36 -1 0 
29 6 0 40 -2 0 28 10 0 
39 -2 0 31 2 0 28 9 0 
32 1 0 29 5 0 35 -1 0 
38 -2 0 28 8 0 30 3 0 
33 -8.88178e-16 0 37 -2 0 28 7 0 
29 4 0 34 -1 0 36 -2 0 
28 6 0 31 1 0 30 2 0 
32 -8.88178e-16 0 40 -3 0 27 10 0 
35 -2 0 28 5 0 29 3 0 
39 -3 0 27 9 0 33 -1 0 
27 8 0 38 -3 0 37 -3 0 
27 7 0 34 -2 0 28 4 0 
31 -6.66134e-16 0 30 1 0 29 2 0 
27 6 0 32 -1 0 36 -3 0 
28 3 0 33 -2 0 27 5 0 
35 -3 0 40 -4 0 26 10 0 
26 9 0 39 -4 0 30 -7.77156e-16 0 
38 -4 0 26 8 0 31 -1 0 
29 1 0 37 -4 0 34 -3 0 
26 7 0 27 4 0 32 -2 0 
28 2 0 36 -4 0 26 6 0 
27 3 0 33 -3 0 30 -1 0 
26 5 0 35 -4 0 29 -8.88178e-16 0 
31 -2 0 40 -5 0 25 10 0 
28 1 0 25 9 0 39 -5 0 
25 8 0 38 -5 0 34 -4 0 
26 4 0 32 -3 0 27 2 0 
37 -5 0 25 7 0 36 -5 0 
25 6 0 29 -1 0 30 -2 0 
28 -1.03621e-15 0 26 3 0 33 -4 0 
31 -3 0 25 5 0 35 -5 0 
27 1 0 40 -6 0 24 10 0 
39 -6 0 24 9 0 38 -6 0 
32 -4 0 26 2 0 24 8 0 
25 4 0 34 -5 0 29 -2 0 
37 -6 0 24 7 0 28 -1 0 
30 -3 0 27 -1.18424e-15 0 24 6 0 
36 -6 0 25 3 0 33 -5 0 
31 -4 0 26 1 0 24 5 0 
35 -6 0 28 -2 0 25 2 0 
23 10 0 32 -5 0 40 -7 0 
27 -1 0 29 -3 0 39 -7 0 
23 9 0 34 -6 0 24 4 0 
38 -7 0 23 8 0 30 -4 0 
26 -1.33227e-15 0 23 7 0 37 -7 0 
33 -6 0 36 -7 0 23 6 0 
24 3 0 31 -5 0 25 1 0 
28 -3 0 27 -2 0 35 -7 0 
23 5 0 29 -4 0 26 -1 0 
24 2 0 32 -6 0 22 10 0 
40 -8 0 34 -7 0 22 9 0 
23 4 0 30 -5 0 39 -8 0 
25 -1.33227e-15 0 38 -8 0 22 8 0 
22 7 0 37 -8 0 31 -6 0 
24 1 0 27 -3 0 23 3 0 
33 -7 0 26 -2 0 36 -8 0 
28 -4 0 22 6 0 25 -1 0 
29 -5 0 22 5 0 35 -8 0 
23 2 0 32 -7 0 30 -6 0 
24 -1.57898e-15 0 34 -8 0 22 4 0 
40 -9 0 21 10 0 39 -9 0 
21 9 0 26 -3 0 21 8 0 
38 -9 0 27 -4 0 28 -5 0 
25 -2 0 31 -7 0 37 -9 0 
21 7 0 23 1 0 33 -8 0 
22 3 0 24 -1 0 36 -9 0 
29 -6 0 21 6 0 21 5 0 
35 -9 0 22 2 0 32 -8 0 
30 -7 0 23 -1.67767e-15 0 26 -4 0 
25 -3 0 27 -5 0 21 4 0 
34 -9 0 24 -2 0 20 10 0 
28 -6 0 40 -10 0 39 -10 0 
20 9 0 38 -10 0 20 8 0 
31 -8 0 22 1 0 37 -10 0 
20 7 0 33 -9 0 23 -1 0 
21 3 0 29 -7 0 36 -10 0 
20 6 0 25 -4 0 26 -5 0 
30 -8 0 22 -1.77636e-15 0 32 -9 0 
20 5 0 21 2 0 27 -6 0 
24 -3 0 35 -10 0 23 -2 0 
28 -7 0 34 -10 0 20 4 0 
19 10 0 19 9 0 31 -9 0 
21 1 0 19 8 0 29 -8 0 
22 -1 0 20 3 0 33 -10 0 
25 -5 0 19 7 0 24 -4 0 
26 -6 0 19 6 0 23 -3 0 
27 -7 0 21 0 0 30 -9 0 
32 -10 0 20 2 0 19 5 0 
28 -8 0 22 -2 0 19 4 0 
20 1 0 31 -10 0 24 -5 0 
25 -6 0 21 -1 0 29 -9 0 
18 10 0 18 9 0 26 -7 0 
23 -4 0 18 8 0 19 3 0 
22 -3 0 18 7 0 27 -8 0 
18 6 0 20 0 0 30 -10 0 
28 -9 0 19 2 0 21 -2 0 
18 5 0 24 -6 0 25 -7 0 
23 -5 0 18 4 0 22 -4 0 
26 -8 0 20 -1 0 29 -10 0 
19 1 0 17 10 0 27 -9 0 
21 -3 0 17 9 0 17 8 0 
18 3 0 17 7 0 19 0 0 
28 -10 0 20 -2 0 17 6 0 
23 -6 0 24 -7 0 18 2 0 
25 -8 0 22 -5 0 17 5 0 
21 -4 0 26 -9 0 19 -1 0 
17 4 0 18 1 0 27 -10 0 
20 -3 0 16 10 0 16 9 0 
17 3 0 23 -7 0 16 8 0 
22 -6 0 24 -8 0 18 0 0 
16 7 0 19 -2 0 21 -5 0 
25 -9 0 16 6 0 17 2 0 
20 -4 0 26 -10 0 16 5 0 
18 -1 0 19 -3 0 17 1 0 
16 4 0 23 -8 0 22 -7 0 
21 -6 0 24 -9 0 16 3 0 
15 10 0 25 -10 0 20 -5 0 
15 9 0 18 -2 0 17 0 0 
15 8 0 15 7 0 19 -4 0 
16 2 0 15 6 0 22 -8 0 
17 -1 0 15 5 0 21 -7 0 
23 -9 0 18 -3 0 20 -6 0 
24 -10 0 16 1 0 15 4 0 
19 -5 0 17 -2 0 15 3 0 
14 10 0 16 -2.96059e-16 0 14 9 0 
18 -4 0 14 8 0 14 7 0 
21 -8 0 22 -9 0 15 2 0 
20 -7 0 23 -10 0 14 6 0 
19 -6 0 16 -1 0 17 -3 0 
14 5 0 15 1 0 18 -5 0 
14 4 0 16 -2 0 21 -9 0 
20 -8 0 22 -10 0 14 3 0 
15 -5.92119e-16 0 17 -4 0 13 10 0 
19 -7 0 13 9 0 13 8 0 
13 7 0 14 2 0 18 -6 0 
13 6 0 16 -3 0 15 -1 0 
13 5 0 17 -5 0 14 1 0 
20 -9 0 21 -10 0 19 -8 0 
13 4 0 15 -2 0 16 -4 0 
18 -7 0 14 -8.88178e-16 0 13 3 0 
12 10 0 12 9 0 17 -6 0 
12 8 0 13 2 0 12 7 0 
15 -3 0 14 -1 0 12 6 0 
20 -10 0 16 -5 0 19 -9 0 
18 -8 0 12 5 0 13 1 0 
17 -7 0 14 -2 0 12 4 0 
15 -4 0 13 -4.44089e-16 0 16 -6 0 
12 3 0 19 -10 0 11 10 0 
11 9 0 14 -3 0 11 8 0 
18 -9 0 12 2 0 15 -5 0 
13 -1 0 11 7 0 17 -8 0 
11 6 0 16 -7 0 12 1 0 
11 5 0 14 -4 0 13 -2 0 
11 4 0 15 -6 0 12 -8.88178e-16 0 
18 -10 0 17 -9 0 11 3 0 
13 -3 0 10 10 0 16 -8 0 
14 -5 0 10 9 0 10 8 0 
12 -1 0 11 2 0 10 7 0 
15 -7 0 10 6 0 11 1 0 
13 -4 0 10 5 0 12 -2 0 
17 -10 0 14 -6 0 10 4 0 
16 -9 0 11 -6.66134e-16 0 10 3 0 
15 -8 0 12 -3 0 13 -5 0 
9 10 0 11 -1 0 9 9 0 
10 2 0 9 8 0 14 -7 0 
9 7 0 16 -10 0 9 6 0 
12 -4 0 10 1 0 13 -6 0 
11 -2 0 9 5 0 15 -9 0 
9 4 0 10 -8.88178e-16 0 14 -8 0 
12 -5 0 9 3 0 11 -3 0 
13 -7 0 10 -1 0 8 10 0 
9 2 0 8 9 0 15 -10 0 
8 8 0 8 7 0 11 -4 0 
14 -9 0 8 6 0 12 -6 0 
9 1 0 10 -2 0 8 5 0 
13 -8 0 8 4 0 9 -8.88178e-16 0 
11 -5 0 10 -3 0 8 3 0 
12 -7 0 14 -10 0 9 -1 0 
8 2 0 7 10 0 13 -9 0 
7 9 0 7 8 0 10 -4 0 
11 -6 0 7 7 0 9 -2 0 
8 1 0 7 6 0 12 -8 0 
7 5 0 8 -1.11022e-15 0 10 -5 0 
7 4 0 13 -10 0 9 -3 0 
11 -7 0 7 3 0 12 -9 0 
8 -1 0 7 2 0 10 -6 0 
6 10 0 6 9 0 9 -4 0 
6 8 0 11 -8 0 6 7 0 
8 -2 0 7 1 0 6 6 0 
6 5 0 12 -10 0 9 -5 0 
7 -1.33227e-15 0 10 -7 0 6 4 0 
8 -3 0 11 -9 0 6 3 0 
7 -1 0 9 -6 0 8 -4 0 
6 2 0 10 -8 0 5 10 0 
5 9 0 5 8 0 7 -2 0 
5 7 0 6 1 0 5 6 0 
11 -10 0 8 -5 0 9 -7 0 
5 5 0 6 -1.55431e-15 0 7 -3 0 
10 -9 0 5 4 0 5 3 0 
6 -1 0 8 -6 0 9 -8 0 
7 -4 0 5 2 0 4 10 0 
4 9 0 4 8 0 10 -10 0 
6 -2 0 4 7 0 5 1 0 
4 6 0 8 -7 0 7 -5 0 
4 5 0 9 -9 0 6 -3 0 
5 -1.77636e-15 0 4 4 0 4 3 0 
7 -6 0 5 -1 0 8 -8 0 
6 -4 0 4 2 0 9 -10 0 
3 10 0 5 -2 0 3 9 0 
3 8 0 4 1 0 3 7 0 
7 -7 0 6 -5 0 3 6 0 
8 -9 0 3 5 0 5 -3 0 
4 -1.77636e-15 0 3 4 0 6 -6 0 
7 -8 0 4 -1 0 3 3 0 
5 -4 0 8 -10 0 3 2 0 
4 -2 0 2 10 0 6 -7 0 
2 9 0 2 8 0 3 1 0 
5 -5 0 7 -9 0 2 7 0 
2 6 0 4 -3 0 3 -1.77636e-15 0 
2 5 0 2 4 0 6 -8 0 
5 -6 0 7 -10 0 3 -1 0 
4 -4 0 2 3 0 2 2 0 
3 -2 0 5 -7 0 6 -9 0 
4 -5 0 1 10 0 1 9 0 
2 1 0 1 8 0 1 7 0 
1 6 0 3 -3 0 2 -1.77636e-15 0 
1 5 0 5 -8 0 4 -6 0 
6 -10 0 1 4 0 2 -1 0 
3 -4 0 1 3 0 1 2 0 
4 -7 0 5 -9 0 2 -2 0 
3 -5 0 0 10 0 0 9 0 
1 1 0 0 8 0 0 7 0 
2 -3 0 0 6 0 4 -8 0 
1 -1.66533e-15 0 5 -10 0 0 5 0 
3 -6 0 0 4 0 2 -4 0 
1 -1 0 0 3 0 4 -9 0 
3 -7 0 0 2 0 1 -2 0 
2 -5 0 0 1 0 -1 10 0 
-1 9 0 -1 8 0 -1 7 0 
1 -3 0 3 -8 0 4 -10 0 
-1 6 0 2 -6 0 0 -1.77636e-15 0 
-1 5 0 -1 4 0 1 -4 0 
0 -1 0 -1 3 0 3 -9 0 
2 -7 0 0 -2 0 -1 2 0 
1 -5 0 -1 1 0 -2 10 0 
-2 9 0 2 -8 0 -2 8 0 
0 -3 0 3 -10 0 -2 7 0 
1 -6 0 -2 6 0 -1 -1.77636e-15 0 
-2 5 0 0 -4 0 -2 4 0 
-1 -1 0 2 -9 0 1 -7 0 
-2 3 0 0 -5 0 -1 -2 0 
-2 2 0 2 -10 0 -2 1 0 
1 -8 0 -3 10 0 -1 -3 0 
-3 9 0 -3 8 0 0 -6 0 
-3 7 0 -2 -1.77636e-15 0 -3 6 0 
-3 5 0 -1 -4 0 1 -9 0 
-3 4 0 -2 -1 0 0 -7 0 
-3 3 0 -1 -5 0 -2 -2 0 
-3 2 0 1 -10 0 0 -8 0 
-3 1 0 -2 -3 0 -4 10 0 
-1 -6 0 -4 9 0 -4 8 0 
-4 7 0 -3 -1.77636e-15 0 -4 6 0 
-2 -4 0 -4 5 0 0 -9 0 
-3 -1 0 -1 -7 0 -4 4 0 
-4 3 0 -2 -5 0 -3 -2 0 
0 -10 0 -4 2 0 -1 -8 0 
-4 1 0 -3 -3 0 -2 -6 0 
-5 10 0 -5 9 0 -5 8 0 
-5 7 0 -4 0 0 -5 6 0 
-1 -9 0 -3 -4 0 -5 5 0 
-2 -7 0 -4 -1 0 -5 4 0 
-3 -5 0 -5 3 0 -4 -2 0 
-1 -10 0 -2 -8 0 -5 2 0 
-4 -3 0 -3 -6 0 -5 1 0 
-6 10 0 -6 9 0 -6 8 0 
-5 0 0 -6 7 0 -2 -9 0 
-6 6 0 -4 -4 0 -3 -7 0 
-6 5 0 -5 -1 0 -6 4 0 
-4 -5 0 -2 -10 0 -6 3 0 
-5 -2 0 -3 -8 0 -6 2 0 
-4 -6 0 -5 -3 0 -6 1 0 
-7 10 0 -7 9 0 -3 -9 0 
-7 8 0 -6 0 0 -7 7 0 
-5 -4 0 -7 6 0 -4 -7 0 
-7 5 0 -6 -1 0 -7 4 0 
-3 -10 0 -5 -5 0 -7 3 0 
-4 -8 0 -6 -2 0 -7 2 0 
-5 -6 0 -6 -3 0 -7 1 0 
-4 -9 0 -8 10 0 -8 9 0 
-8 8 0 -7 0 0 -6 -4 0 
-8 7 0 -5 -7 0 -8 6 0 
-8 5 0 -7 -1 0 -4 -10 0 
-8 4 0 -6 -5 0 -5 -8 0 
-8 3 0 -7 -2 0 -8 2 0 
-6 -6 0 -7 -3 0 -8 1 0 
-5 -9 0 -9 10 0 -9 9 0 
-8 0 0 -7 -4 0 -9 8 0 
-6 -7 0 -9 7 0 -9 6 0 
-8 -1 0 -5 -10 0 -9 5 0 
-7 -5 0 -9 4 0 -6 -8 0 
-8 -2 0 -9 3 0 -9 2 0 
-7 -6 0 -8 -3 0 -6 -9 0 
-9 1 0 -7 -7 0 -10 10 0 
-8 -4 0 -10 9 0 -9 0 0 
-10 8 0 -10 7 0 -10 6 0 
-6 -10 0 -9 -1 0 -10 5 0 
-8 -5 0 -7 -8 0 -10 4 0 
-9 -2 0 -10 3 0 -8 -6 0 
-10 2 0 -9 -3 0 -7 -9 0 
-10 1 0 -8 -7 0 -9 -4 0 
-10 0 0 -7 -10 0 -10 -1 0 
-9 -5 0 -8 -8 0 -10 -2 0 
-9 -6 0 -8 -9 0 -10 -3 0 
-9 -7 0 -10 -4 0 -8 -10 0 
-9 -8 0 -10 -5 0 -10 -6 0 
-9 -9 0 -10 -7 0 -9 -10 0 
-10 -8 0 -10 -9 0 -10 -10 0 

POLYGONS 2000 8000
3 1030 1007 1028 
3 1028 1007 1006 
3 1007 986 1006 
3 1006 986 985 
3 986 964 985 
3 985 964 963 
3 964 943 963 
3 963 943 942 
3 1070 1065 1069 
3 1067 1065 1070 
3 1067 1057 1065 
3 1061 1057 1067 
3 1061 1046 1057 
3 1051 1046 1061 
3 1051 1025 1046 
3 1035 1025 1051 
3 1032 1010 1030 
3 1030 1010 1007 
3 1010 987 1007 
3 1007 987 986 
3 987 966 986 
3 986 966 964 
3 966 944 964 
3 964 944 943 
3 1033 1012 1032 
3 1032 1012 1010 
3 1012 990 1010 
3 1010 990 987 
3 990 968 987 
3 987 968 966 
3 968 946 966 
3 966 946 944 
3 1034 1013 1033 
3 1033 1013 1012 
3 1013 992 1012 
3 1012 992 990 
3 992 970 990 
3 990 970 968 
3 970 948 968 
3 968 948 946 
3 1037 1016 1034 
3 1034 1016 1013 
3 1016 993 1013 
3 1013 993 992 
3 993 972 992 
3 992 972 970 
3 972 951 970 
3 970 951 948 
3 1040 1018 1037 
3 1037 1018 1016 
3 1018 996 1016 
3 1016 996 993 
3 996 974 993 
3 993 974 972 
3 974 953 972 
3 972 953 951 
3 1042 1021 1040 
3 1040 1021 1018 
3 1021 999 1018 
3 1018 999 996 
3 999 977 996 
3 996 977 974 
3 977 956 974 
3 974 956 953 
3 1044 1022 1042 
3 1042 1022 1021 
3 1022 1001 1021 
3 1021 1001 999 
3 1001 980 999 
3 999 980 977 
3 980 959 977 
3 977 959 956 
3 1047 1026 1044 
3 1044 1026 1022 
3 1026 1004 1022 
[...]
POINT_DATA 1071
FIELD FieldData 2
PRESSURE 1 1071 float
0 270.707 0 270.053 0 532.698 531.838 266.214 529.065 
0 793.24 792.505 263.99 526.975 790.669 0 1053.66 1053.11 
263.067 789.115 1051.88 525.82 1050.79 0 1314.21 788.081 262.639 
1313.81 1312.98 525.139 1049.97 1312.23 787.363 1574.92 0 262.394 
1574.64 524.709 1574.07 1049.32 1311.61 1573.56 786.863 1835.78 0 
1311.08 1835.58 262.246 1048.84 1573.12 1835.2 524.439 1834.86 786.531 
1310.66 1572.71 0 2096.77 1048.5 2096.63 262.158 1834.55 2096.38 
524.278 1572.36 786.326 2096.16 1834.24 1310.35 1048.28 2095.94 0 
2357.86 2357.77 262.112 1572.09 2357.6 1833.97 524.192 1310.14 2095.72 
2357.46 786.213 2357.32 1048.16 1833.75 0 1571.91 2619.04 2095.51 
2618.98 262.097 2618.87 524.164 2357.17 1310.02 2618.79 786.176 1833.59 
2095.34 1048.12 2618.7 2357.01 1571.8 2880.29 0 2880.24 262.112 
2880.17 2618.59 524.192 1309.98 2095.22 786.213 2356.88 2880.13 1833.5 
1571.76 2618.49 1048.16 2880.08 0 3141.58 262.158 2356.79 3141.55 
2095.14 2880.01 1310.02 524.278 3141.51 2618.39 1833.47 786.326 3141.49 
2879.94 1571.8 1048.28 3141.46 2356.73 2618.32 2095.11 0 3402.93 
1310.14 3141.43 2879.87 262.246 3402.9 1833.5 3402.87 524.439 786.531 
3402.86 1571.91 3141.38 2356.71 2618.28 2879.82 3402.86 2095.14 1048.5 
3141.34 1833.59 3402.84 1310.35 0 3664.3 3664.28 262.394 2618.26 
524.709 3664.26 2356.73 2879.79 786.863 1572.09 3664.25 3402.82 2095.22 
3141.31 1048.84 3664.26 3402.8 1833.75 2618.28 3664.26 1310.66 2879.78 
2356.79 0 3925.7 3141.29 3925.69 262.639 3925.66 525.139 1572.36 
3664.26 2095.34 3402.78 787.363 3925.65 1049.32 3925.66 2879.79 2618.32 
3141.28 3664.25 1833.97 2356.88 3925.68 1311.08 3402.76 0 4187.12 
263.067 4187.11 525.82 2095.51 3664.24 4187.07 3925.69 1572.71 2879.82 
788.081 4187.06 3141.29 2618.39 3402.76 4187.08 1049.97 3925.7 1834.24 
2357.01 3664.23 4187.11 1311.61 3141.31 3925.7 4448.55 2095.72 0 
3402.76 2879.87 263.99 4448.54 1573.12 4187.13 526.975 4448.5 2618.49 
3664.23 4448.48 789.115 1834.55 1050.79 4448.5 4187.14 2357.17 3925.7 
3141.34 3402.78 1312.23 4448.54 2879.94 3664.23 4187.15 2095.94 4709.99 
0 1573.56 4709.98 4448.57 2618.59 266.214 3925.7 529.065 4709.93 
4709.9 790.669 2357.32 4187.16 3402.8 4448.59 1834.86 3664.24 1051.88 
3141.38 4709.92 3925.7 2880.01 4709.97 1312.98 4448.61 2096.16 2618.7 
4187.16 1574.07 4710.01 0 4971.44 270.053 4971.43 3664.25 4971.36 
531.838 3402.82 3141.43 3925.7 2357.46 792.505 4971.32 4448.62 1835.2 
4710.04 4187.16 1053.11 2880.08 4971.33 4971.4 1313.81 4710.07 2096.38 
2618.79 4448.62 3664.26 3925.7 3402.84 4971.46 1574.64 4187.15 5232.88 
3141.46 0 270.707 5232.87 532.698 5232.79 2357.6 4710.08 793.24 
5232.73 1835.58 4448.62 4971.5 2880.13 1053.66 5232.75 3925.69 3664.26 
2618.87 4710.09 2096.63 5232.83 4971.54 3402.86 4187.14 1314.21 4448.61 
3141.49 1574.92 5232.91 5494.31 5494.29 2357.77 4971.56 5494.21 2880.17 
4710.08 5232.97 1835.78 3925.68 5494.13 4187.13 3664.26 5494.16 4448.59 
3402.86 4971.57 2618.98 2096.77 5233.02 5494.26 3141.51 4710.07 5494.36 
5233.05 2357.86 4187.11 3925.66 4971.56 2880.24 5755.71 5755.7 3664.25 
4448.57 5755.61 5494.45 4710.04 5755.52 3402.87 5755.55 5233.06 2619.04 
3141.55 5494.51 4971.54 5755.68 4187.08 3925.65 4448.54 5755.82 4710.01 
3664.26 5233.05 2880.29 5494.56 6017.06 3402.9 4971.5 6017.07 6016.98 
5755.93 6016.88 5494.57 3141.58 5233.02 6016.92 4448.5 4187.06 5756.02 
3925.66 4709.97 6017.09 4971.46 3664.28 5494.56 6017.28 5756.08 3402.93 
5232.97 6278.35 6278.37 6017.43 4448.48 6278.29 4709.92 4187.07 5756.1 
6278.2 5494.51 4971.4 3925.69 6278.27 6017.55 5232.91 3664.3 6278.5 
5756.08 5494.45 6017.62 6278.75 4448.5 4709.9 4971.33 4187.11 6278.96 
6539.54 3925.7 5232.83 6539.58 5756.02 6017.65 6539.54 6539.46 5494.36 
6279.11 6539.57 4709.93 6017.62 6539.88 4971.32 4448.54 5755.93 5232.75 
4187.12 6279.21 6540.23 5494.26 6017.55 6540.51 6800.59 6279.25 6800.67 
5755.82 6800.68 6800.64 4971.36 4709.98 6540.74 5232.73 4448.55 6800.82 
5494.16 6279.21 6017.43 6801.25 6540.89 5755.68 6801.72 6279.11 4971.43 
5232.79 4709.99 6802.13 6540.93 6017.28 7061.44 5494.13 7061.58 7061.68 
7061.71 6802.45 5755.55 7062 6278.96 6540.89 7062.59 6017.09 6802.67 
5232.87 4971.44 5494.21 7063.24 6540.74 6278.75 5755.52 6802.72 7063.8 
7322.02 7322.23 6016.92 7322.48 7064.26 7322.63 6540.51 6802.67 7323.08 
5232.88 6278.5 5494.29 5755.61 7323.91 7064.54 6016.88 6802.45 7324.79 
6540.23 7064.62 6278.27 7325.57 5494.31 7582.22 7582.54 6802.13 7583.01 
5755.7 7326.18 6539.88 7064.54 7583.36 6016.98 7584.05 6278.2 7326.53 
7585.19 6801.72 7064.26 7586.4 6539.57 7326.65 5755.71 6017.07 7587.45 
7063.8 7841.91 6278.29 6801.25 7842.39 7843.18 7326.53 7588.25 7843.83 
6539.46 7844.86 7588.73 7063.24 7846.44 7326.18 6017.06 6800.82 7848.09 
6278.37 7588.91 7849.52 6539.54 7325.57 7062.59 8100.92 7588.73 8101.62 
7850.6 8102.87 6800.64 8103.96 6278.35 8105.48 7324.79 7851.3 7062 
7588.25 8107.64 6539.58 8109.91 7851.53 6800.68 7323.91 8111.87 7587.45 
7061.71 7851.3 8359.04 8113.4 8360.03 6539.54 8361.92 8363.64 7586.4 
6800.67 8365.84 7323.08 8114.42 7850.6 8368.8 7061.68 8371.9 8114.69 
7585.19 7849.52 8374.62 7322.63 6800.59 8114.42 8376.81 8615.96 7061.58 
8617.34 8620.12 7848.09 7584.05 8622.74 8113.4 8378.18 8625.88 7322.48 
8629.94 8378.52 7846.44 8634.17 7061.44 8111.87 7583.36 8637.9 7322.23 
8378.18 8640.87 7844.86 8871.33 8873.22 8109.91 8877.22 7583.01 8881.1 
8376.81 8642.6 8885.55 8891.11 7322.02 8107.64 8643.12 7843.83 8896.83 
8374.62 7582.54 8901.83 8642.6 8105.48 8371.9 8905.68 7843.18 9124.66 
9127.24 9132.88 8640.87 9138.5 8907.92 9144.76 7582.22 8368.8 8103.96 
9152.33 8908.77 8637.9 7842.39 9160 9166.63 8907.92 8365.84 8102.87 
8634.17 9171.64 9375.37 9378.84 9386.65 7841.91 8905.68 9394.64 9174.78 
9403.35 8363.64 8629.94 9413.55 8101.62 8901.83 9176.02 9423.81 9432.72 
8625.88 9174.78 8361.92 8896.83 9439.57 8100.92 9622.67 9171.64 9627.3 
9637.97 9444.14 9649.11 8622.74 8891.11 9661.05 8360.03 9674.72 9166.63 
9445.65 9688.53 8885.55 8620.12 9444.14 9700.74 9160 8359.04 9710.44 
9439.57 9865.63 8881.1 9871.72 9886.08 9716.72 9152.33 8617.34 9901.38 
9917.6 9432.72 9718.39 9935.97 9954.66 8877.22 9144.76 8615.96 9716.72 
9423.81 9971.42 9984.83 9710.44 9138.5 8873.22 9413.55 10103 10111 
9992.84 10130.1 10150.8 10172.9 9700.74 9994.89 10197.6 9132.88 9403.35 
8871.33 10222.8 9992.84 9688.53 10245.3 10263.1 9394.64 9127.24 9984.83 
9674.72 10333.4 10343.7 10273.3 10368.8 10396.7 9971.42 10426.5 9386.65 
10276.3 9124.66 10459.9 9661.05 10493.2 9954.66 10273.3 10522.9 9378.84 
9649.11 10546.2 10263.1 9935.97 10560.4 10554.8 10568 10600.6 10637.7 
10245.3 9637.97 9375.37 10677.7 9917.6 10565.1 10721.8 10765.9 10222.8 
10560.4 10805.4 9627.3 9901.38 10546.2 10837.1 10197.6 10858.4 10765.2 
10781.7 9886.08 10823.3 10522.9 9622.67 10871.7 10172.9 10924.2 10865.2 
10982.2 10493.2 11041.2 10858.4 9871.72 10150.8 11095.4 10459.9 10837.1 
11140.2 9865.63 11171.1 10130.1 10961.6 10805.4 10982 11034 10426.5 
11095.8 11180.9 11163.9 11240.5 10765.9 10111 11321.1 11171.1 10396.7 
11396.5 10721.8 11140.2 11459.5 10103 10368.8 11501.5 11095.4 11141 
10677.7 11165.8 11229.5 11307.3 11516.2 11395.6 11041.2 11497.6 10343.7 
11501.5 10637.7 11607 11711.2 10982.2 11459.5 10333.4 11798.2 10600.6 
11853.5 11396.5 10924.2 11299.8 11329.3 11405.9 11502.7 11876.1 11616.7 
10568 11321.1 11750.1 10871.7 11853.5 11895.2 11240.5 12039.4 11798.2 
10554.8 10823.3 12161.3 11711.2 11163.9 12238.6 11434.4 11468.5 11558.1 
12272.3 11675.3 10781.7 11817 11607 11095.8 11985.4 12238.6 12175.7 
11497.6 10765.2 12380.6 12161.3 11034 12563 11395.6 12039.4 12686 
11541 11578.5 10982 11677.7 12732.5 11811.4 11895.2 11978.8 11307.3 
12185.9 12686 12435.3 10961.6 11750.1 12728.3 11229.5 12563 13018.4 
11616.7 12380.6 13235 11165.8 11616.2 11654.6 11756.5 13303 12175.7 
11900.1 11502.7 12090 12337.3 13235 11141 12654.5 11985.4 11405.9 
13059.5 13018.4 13517.2 11817 12728.3 13921.7 11329.3 11659 11696.8 
14075 12435.3 11795.5 11675.3 11944.1 12149.7 13921.7 11299.8 12425.8 
12185.9 12792.3 11558.1 13517.2 13304.3 14003.4 11978.8 13059.5 11468.5 
14848.1 11811.4 11673 12654.5 11710.9 15344.1 11806 11955.1 12163.4 
11434.4 14848.1 12451 12337.3 11677.7 12875.7 14003.4 13532.9 12090 
14642.4 13304.3 11578.5 16107.9 11900.1 12792.3 16633.7 11541 16107.9 
12425.8 11756.5 14642.4 12149.7 11654.6 13532.9 11944.1 12875.7 11616.2 
11795.5 12451 12163.4 11696.8 11955.1 11659 11806 11710.9 11673 

VELOCITY 3 1071 float
0 0 0 0 0 0 15.6616 -0.0275984 0 
15.5205 -0.0146703 0 28.9688 -0.00885046 0 0 0 0 
15.4902 -0.00837078 0 28.9507 -0.016674 0 28.9433 -0.0134757 0 
40.136 -0.0135223 0 0 0 0 15.4839 -0.0048798 0 
40.1229 -0.0155417 0 40.116 -0.0136993 0 28.9418 -0.00985006 0 
49.8969 -0.00921168 0 0 0 0 15.4825 -0.00324964 0 
49.8915 -0.0109558 0 40.113 -0.0108317 0 28.9424 -0.00724675 0 
49.8874 -0.0104369 0 40.1118 -0.00831717 0 58.1021 -0.00653883 0 
0 0 0 49.8848 -0.0088971 0 58.0993 -0.00766759 0 
15.4817 -0.0024853 0 28.9434 -0.00549882 0 58.0966 -0.00770489 0 
49.8834 -0.00722484 0 40.1113 -0.00638836 0 58.0944 -0.0069888 0 
0 0 0 64.0363 -0.00470352 0 64.0343 -0.0053886 0 
15.4809 -0.00205866 0 64.0322 -0.00556014 0 28.9443 -0.00428843 0 
58.0929 -0.00597818 0 49.8827 -0.00575352 0 40.111 -0.00494956 0 
64.0303 -0.00524857 0 0 0 0 65.6243 -0.00317293 0 
58.0918 -0.00494817 0 15.4801 -0.0017512 0 65.6227 -0.00357961 0 
64.0287 -0.00466082 0 49.8822 -0.00455218 0 28.945 -0.0034009 0 
65.621 -0.00374064 0 40.111 -0.00386901 0 65.6193 -0.00362064 0 
64.0275 -0.00397655 0 58.0911 -0.00402084 0 69.3252 -0.00189121 0 
0 0 0 65.6179 -0.00329966 0 15.4793 -0.00148807 0 
69.3241 -0.00214495 0 49.882 -0.00359847 0 28.9455 -0.00271794 0 
69.3228 -0.00226682 0 64.0266 -0.00330591 0 69.3215 -0.00223221 0 
40.1109 -0.00304565 0 58.0906 -0.00323436 0 65.6166 -0.00287931 0 
69.3203 -0.00206996 0 49.8818 -0.00284901 0 81.3361 -0.000912924 0 
0 0 0 15.4786 -0.00124991 0 81.3351 -0.00103779 0 
65.6156 -0.00244 0 28.9459 -0.00217763 0 64.0259 -0.00270476 0 
81.3341 -0.00110487 0 69.3193 -0.00183582 0 58.0902 -0.00258907 0 
40.1109 -0.00241107 0 81.333 -0.00109429 0 49.8817 -0.0022627 0 
81.3319 -0.00102068 0 65.6148 -0.00203285 0 89.9635 -5.99719e-14 0 
69.3184 -0.001583 0 0 0 0 64.0253 -0.00219471 0 
15.4781 -0.00103491 0 89.9626 -4.79177e-14 0 28.9463 -0.00174572 0 
89.9615 -4.03621e-14 0 58.0899 -0.00207056 0 81.331 -0.000913091 0 
40.1109 -0.00191937 0 89.9604 -5.25194e-14 0 69.3177 -0.0013452 0 
65.6141 -0.00167956 0 89.9593 -7.08539e-14 0 49.8816 -0.00180582 0 
64.0249 -0.00177514 0 81.3301 -0.000797718 0 0 0 0 
81.3361 0.000912924 0 15.4777 -0.000844442 0 81.3351 0.00103779 0 
28.9466 -0.00140035 0 58.0897 -0.00165895 0 81.3341 0.00110487 0 
89.9584 -8.6565e-14 0 69.3171 -0.00112933 0 81.333 0.00109429 0 
65.6136 -0.00137633 0 40.1109 -0.00153841 0 81.3294 -0.000686262 0 
89.9575 -9.96574e-14 0 64.0246 -0.00143145 0 81.3319 0.00102068 0 
49.8816 -0.00145133 0 69.3252 0.00189121 0 0 0 0 
69.3241 0.00214495 0 69.3166 -0.000924144 0 15.4774 -0.000678495 0 
81.3288 -0.000575124 0 58.0896 -0.00133292 0 81.331 0.000913091 0 
69.3228 0.00226682 0 28.9468 -0.00112498 0 65.6132 -0.00110786 0 
89.9567 -1.14808e-13 0 69.3215 0.00223221 0 40.1109 -0.00124414 0 
64.0244 -0.00114572 0 81.3301 0.000797718 0 69.3203 0.00206996 0 
49.8816 -0.00117734 0 81.3283 -0.000458815 0 69.3161 -0.000724697 0 
89.9561 -1.14982e-13 0 65.6243 0.00317293 0 0 0 0 
69.3193 0.00183582 0 58.0894 -0.00107353 0 65.6129 -0.000869215 0 
65.6227 0.00357961 0 15.4773 -0.000534852 0 81.3294 0.000686262 0 
28.9469 -0.000905342 0 65.621 0.00374064 0 65.6193 0.00362064 0 
40.1109 -0.00101736 0 69.3184 0.001583 0 64.0242 -0.000908721 0 
89.9556 -1.10477e-13 0 81.3279 -0.000348071 0 69.3158 -0.000553077 0 
49.8815 -0.000966057 0 81.3288 0.000575124 0 65.6179 0.00329966 0 
65.6126 -0.000677637 0 69.3177 0.0013452 0 58.0893 -0.000867478 0 
65.6166 0.00287931 0 64.0363 0.00470352 0 0 0 0 
15.4772 -0.000409322 0 64.0343 0.0053886 0 89.9552 -1.01859e-13 0 
64.0322 0.00556014 0 28.9471 -0.000728092 0 81.3283 0.000458815 0 
81.3275 -0.000271402 0 64.0303 0.00524857 0 65.6156 0.00244 0 
40.1109 -0.000841633 0 64.024 -0.000723442 0 69.3171 0.00112933 0 
69.3155 -0.000446929 0 64.0287 0.00466082 0 49.8815 -0.000802799 0 
65.6124 -0.000555253 0 65.6148 0.00203285 0 81.3279 0.000348071 0 
58.0892 -0.000706519 0 64.0275 0.00397655 0 89.9549 -9.76789e-14 0 
69.3166 0.000924144 0 58.1021 0.00653883 0 0 0 0 
81.3273 -0.000247644 0 15.4772 -0.000296153 0 58.0993 0.00766759 0 
28.9472 -0.000580087 0 58.0966 0.00770489 0 64.0266 0.00330591 0 
64.0238 -0.000592591 0 65.6141 0.00167956 0 69.3154 -0.000412475 0 
58.0944 0.0069888 0 40.1109 -0.000701816 0 58.0929 0.00597818 0 
49.8815 -0.000674429 0 81.3275 0.000271402 0 69.3161 0.000724697 0 
89.9546 -8.00637e-14 0 65.6123 -0.000490228 0 64.0259 0.00270476 0 
65.6136 0.00137633 0 58.0892 -0.000581875 0 58.0918 0.00494817 0 
81.3271 -0.00024992 0 49.8969 0.00921168 0 0 0 0 
49.8915 0.0109558 0 15.4773 -0.000188323 0 49.8874 0.0104369 0 
64.0253 0.00219471 0 69.3152 -0.000386671 0 28.9472 -0.000447818 0 
64.0238 -0.000498744 0 58.0911 0.00402084 0 69.3158 0.000553077 0 
49.8848 0.0088971 0 40.1108 -0.000582948 0 81.3273 0.000247644 0 
65.6132 0.00110786 0 89.9543 -5.4383e-14 0 49.8814 -0.000567682 0 
49.8834 0.00722484 0 65.6122 -0.000418519 0 58.0906 0.00323436 0 
64.0249 0.00177514 0 81.3269 -0.000208479 0 58.0891 -0.000478067 0 
49.8827 0.00575352 0 69.3155 0.000446929 0 69.3151 -0.000271374 0 
0 0 0 58.0902 0.00258907 0 40.136 0.0135223 0 
81.3271 0.00024992 0 65.6129 0.000869215 0 40.1229 0.0155417 0 
15.4774 -7.76716e-05 0 49.8822 0.00455218 0 64.0237 -0.000400245 0 
40.116 0.0136993 0 28.9473 -0.000316969 0 64.0246 0.00143145 0 
89.9541 -3.43567e-14 0 40.1108 -0.000469655 0 40.113 0.0108317 0 
49.882 0.00359847 0 40.1118 0.00831717 0 49.8814 -0.000468472 0 
65.612 -0.00026712 0 58.0899 0.00207056 0 81.3267 -7.78589e-05 0 
65.6126 0.000677637 0 69.3154 0.000412475 0 40.1113 0.00638836 0 
58.0891 -0.000373034 0 64.0244 0.00114572 0 81.3269 0.000208479 0 
69.3149 -4.30484e-05 0 49.8818 0.00284901 0 0 0 0 
28.9688 0.00885046 0 40.111 0.00494956 0 15.4777 4.51712e-05 0 
64.0236 -0.00025753 0 58.0897 0.00165895 0 28.9507 0.016674 0 
89.954 -1.67467e-14 0 28.9433 0.0134757 0 28.9473 -0.000171906 0 
40.1108 -0.000345826 0 28.9418 0.00985006 0 49.8817 0.0022627 0 
81.3266 8.18008e-05 0 65.6124 0.000555253 0 65.6118 -3.9837e-05 0 
40.111 0.00386901 0 69.3152 0.000386671 0 28.9424 0.00724675 0 
64.0242 0.000908721 0 49.8814 -0.000361892 0 81.3267 7.78589e-05 0 
58.0896 0.00133292 0 58.089 -0.00024544 0 28.9434 0.00549882 0 
69.3147 0.000165998 0 40.1109 0.00304565 0 49.8816 0.00180582 0 
89.9541 -3.41279e-15 0 28.9443 0.00428843 0 64.0234 -7.19874e-05 0 
15.6616 0.0275984 0 0 0 0 15.5205 0.0146703 0 
15.4781 0.000191118 0 65.6123 0.000490228 0 28.9472 5.18367e-06 0 
15.4902 0.00837078 0 64.024 0.000723442 0 58.0894 0.00107353 0 
69.3151 0.000271374 0 40.1109 0.00241107 0 15.4839 0.0048798 0 
40.1108 -0.000193538 0 81.3267 0.00011835 0 28.945 0.0034009 0 
65.6115 0.000146659 0 81.3266 -8.18008e-05 0 15.4825 0.00324964 0 
49.8816 0.00145133 0 49.8813 -0.00023071 0 58.0889 -8.21616e-05 0 
15.4817 0.0024853 0 69.3147 0.000154537 0 28.9455 0.00271794 0 
40.1109 0.00191937 0 89.9542 -4.88688e-15 0 64.0238 0.000592591 0 
65.6122 0.000418519 0 58.0893 0.000867478 0 64.0232 0.00010659 0 
15.4809 0.00205866 0 69.3149 4.30484e-05 0 0 0 0 
49.8816 0.00117734 0 0 0 0 0 0 0 
15.4786 0.000373244 0 0 0 0 28.9471 0.000235656 0 
28.9459 0.00217763 0 81.3269 -5.16453e-05 0 0 0 0 
40.1107 9.62725e-06 0 15.4801 0.0017512 0 81.3267 -0.00011835 0 
65.6115 0.000162385 0 40.1109 0.00153841 0 0 0 0 
49.8813 -5.20272e-05 0 64.0238 0.000498744 0 58.0892 0.000706519 0 
28.9463 0.00174572 0 89.9541 -2.89648e-14 0 15.4793 0.00148807 0 
58.0888 0.000121074 0 69.315 -9.33028e-05 0 49.8815 0.000966057 0 
65.612 0.00026712 0 0 0 0 69.3147 -0.000165998 0 
40.1109 0.00124414 0 0 0 0 64.0231 0.000231849 0 
0 0 0 15.4793 0.000607549 0 15.4786 0.00124991 0 
81.3269 -0.00026049 0 28.947 0.000546112 0 28.9466 0.00140035 0 
81.3269 5.16453e-05 0 65.6117 5.56151e-05 0 0 0 0 
58.0892 0.000581875 0 40.1106 0.000293845 0 64.0237 0.000400245 0 
49.8815 0.000802799 0 49.8812 0.000202973 0 65.6118 3.9837e-05 0 
40.1109 0.00101736 0 89.9538 -3.38769e-14 0 15.4781 0.00103491 0 
0 0 0 69.3152 -0.000231722 0 58.0888 0.000366919 0 
28.9468 0.00112498 0 69.3147 -0.000154537 0 64.0233 0.000344171 0 
81.3267 -0.000140329 0 0 0 0 58.0891 0.000478067 0 
49.8815 0.000674429 0 81.3269 0.00026049 0 15.4777 0.000844442 0 
0 0 0 15.4801 0.000913684 0 40.1109 0.000841633 0 
64.0236 0.00025753 0 28.9468 0.000970019 0 65.612 0.000135627 0 
65.6115 -0.000146659 0 40.1105 0.000697988 0 28.9469 0.000905342 0 
49.8811 0.000562502 0 89.9536 -1.98441e-14 0 0 0 0 
15.4774 0.000678495 0 69.3152 0.000227433 0 69.315 9.33028e-05 0 
58.0888 0.000673589 0 49.8814 0.000567682 0 40.1109 0.000701816 0 
58.0891 0.000373034 0 64.0235 0.000608194 0 64.0234 7.19874e-05 0 
28.9471 0.000728092 0 81.3267 0.000140329 0 0 0 0 
81.3265 0.000486974 0 0 0 0 15.4773 0.000534852 0 
65.6115 -0.000162385 0 15.4811 0.00131576 0 28.9465 0.00154922 0 
65.6118 0.00075404 0 40.1104 0.0012674 0 89.954 -3.09147e-15 0 
0 0 0 69.3152 0.000231722 0 49.8811 0.00105198 0 
49.8814 0.000468472 0 40.1108 0.000582948 0 69.3147 0.00131874 0 
28.9472 0.000580087 0 58.089 0.00024544 0 58.0889 0.00110696 0 
64.0232 -0.00010659 0 15.4772 0.000409322 0 81.3265 -0.000486974 0 
64.0234 0.00123191 0 81.3269 0.00120307 0 0 0 0 
65.6117 -5.56151e-05 0 0 0 0 15.4824 0.00184364 0 
65.6111 0.00186689 0 40.1108 0.000469655 0 28.946 0.00233607 0 
49.8814 0.000361892 0 28.9472 0.000447818 0 89.9553 9.3732e-15 0 
40.1102 0.0020542 0 69.3152 -0.000227433 0 58.0889 8.21616e-05 0 
15.4772 0.000296153 0 49.8811 0.00171747 0 69.3146 0.00224171 0 
64.0231 -0.000231849 0 0 0 0 58.089 0.00180501 0 
81.3269 -0.00120307 0 65.612 -0.000135627 0 81.3281 0.00117526 0 
64.0229 0.00227015 0 28.9473 0.000316969 0 40.1108 0.000345826 0 
49.8813 0.00023071 0 15.4773 0.000188323 0 65.6106 0.00282426 0 
0 0 0 0 0 0 58.0888 -0.000121074 0 
15.4839 0.0025349 0 69.3147 -0.00131874 0 89.9565 1.26902e-15 0 
28.9455 0.0033968 0 40.11 0.00312853 0 64.0233 -0.000344171 0 
69.3156 0.00193604 0 49.881 0.00266696 0 28.9473 0.000171906 0 
81.3281 -0.00117526 0 58.0889 0.00292108 0 40.1108 0.000193538 0 
15.4774 7.76716e-05 0 65.6118 -0.00075404 0 49.8813 5.20272e-05 0 
0 0 0 81.3296 0.000120956 0 64.0224 0.00345353 0 
58.0888 -0.000366919 0 69.3146 -0.00224171 0 65.6112 0.00287156 0 
0 0 0 89.9564 -1.13524e-14 0 15.4858 0.00343701 0 
64.0235 -0.000608194 0 28.9448 0.00481594 0 40.1098 0.00459745 0 
28.9472 -5.18367e-06 0 15.4777 -4.51712e-05 0 69.3178 0.00051876 0 
40.1107 -9.62725e-06 0 0 0 0 49.8809 0.00406417 0 
49.8812 -0.000202973 0 81.3296 -0.000120956 0 65.6111 -0.00186689 0 
58.0886 0.00445162 0 81.3302 -0.000803679 0 58.0888 -0.000673589 0 
64.0228 0.00431982 0 69.3156 -0.00193604 0 15.4781 -0.000191118 0 
28.9471 -0.000235656 0 0 0 0 65.6135 0.00224465 0 
89.9552 -3.96566e-14 0 64.0234 -0.00123191 0 0 0 0 
40.1106 -0.000293845 0 15.488 0.00460912 0 28.9438 0.00670118 0 
40.1094 0.00660976 0 69.3196 0.000103756 0 49.8811 -0.000562502 0 
49.8806 0.00602297 0 65.6106 -0.00282426 0 81.3302 0.000803679 0 
58.0888 0.00613841 0 58.0889 -0.00110696 0 81.3295 0.000366135 0 
15.4786 -0.000373244 0 0 0 0 28.947 -0.000546112 0 
64.0246 0.00483783 0 69.3178 -0.00051876 0 64.0229 -0.00227015 0 
40.1105 -0.000697988 0 89.9552 -8.21942e-14 0 65.6157 0.00277826 0 
0 0 0 15.4907 0.0061244 0 49.8811 -0.00105198 0 
28.9426 0.00918919 0 69.3193 0.00323686 0 40.1089 0.00933103 0 
65.6112 -0.00287156 0 81.3295 -0.000366135 0 49.8804 0.00851097 0 
0 0 0 58.089 -0.00180501 0 15.4793 -0.000607549 0 
28.9468 -0.000970019 0 58.09 0.00781418 0 81.3295 0.00401333 0 