<?xml version="1.0"?>
<VTKFile type="PolyData" version="0.1" byte_order="LittleEndian" compressor="vtkZLibDataCompressor">
  <PolyData>
    <Piece NumberOfPoints="1071" NumberOfVerts="0" NumberOfLines="0" NumberOfStrips="0" NumberOfPolys="2000">
      <PointData>
        <DataArray type="Float32" Name="PRESSURE" format="ascii" RangeMin="0" RangeMax="16633.728516">
          0 270.7069397 0 270.05380249 0 532.69915771
          531.83837891 266.21444702 529.065979 0 793.24133301 792.50592041
          263.98968506 526.97509766 790.67016602 0 1053.6602783 1053.1077881
          263.0675354 789.11529541 1051.8790283 525.82025146 1050.7868652 0
          1314.2094727 788.08190918 262.63937378 1313.8114014 1312.9797363 525.13964844
          1049.9660645 1312.227417 787.36358643 1574.921875 0 262.3944397
          1574.6395264 524.70947266 1574.0756836 1049.3242188 1311.6113281 1573.5648193
          786.86340332 1835.7836914 0 1311.0847168 1835.5852051 262.24575806
          1048.8399658 1573.1181641 1835.2055664 524.43933105 1834.8647461 786.53112793
          1310.6607666 1572.7078857 0 2096.7722168 1048.4998779 2096.6340332
          262.15817261 1834.5499268 2096.3818359 524.27819824 1572.3592529 786.32598877
          2096.159668 1834.2419434 1310.3480225 1048.2814941 2095.9443359 0
          2357.8654785 2357.7700195 262.11181641 1572.0911865 2357.6052246 1833.9678955
          524.19207764 1310.1398926 2095.7207031 2357.4650879 786.21356201 2357.3232422
          1048.1584473 1833.7493896 0 1571.9071045 2619.0427246 2095.5129395
          2618.9775391 262.0975647 2618.8718262 524.16418457 2357.1665039 1310.0194092
          2618.7873535 786.1762085 1833.5952148 2095.3417969 1048.1168213 2618.6989746
          2357.0141602 1571.7979736 2880.2878418 0 2880.2434082 262.11181641
          2880.1760254 2618.5939941 524.19207764 1309.9780273 2095.2182617 786.21356201
          2356.8852539 2880.1281738 1833.5020752 1571.7600098 2618.4868164 1048.1584473
          2880.0778809 0 3141.5861816 262.15817261 2356.7900391 3141.5556641
          2095.1425781 2880.0126953 1310.0194092 524.27819824 3141.512207 2618.3930664
          1833.4693604 786.32598877 3141.4870605 2879.9411621 1571.7979736 1048.2814941
          3141.4633789 2356.730957 2618.3227539 2095.1157227 0 3402.927002
          1310.1398926 3141.4279785 2879.8759766 262.24575806 3402.9055176 1833.5020752
          3402.8747559 524.43933105 786.53112793 3402.8620605 1571.9071045 3141.3845215
          2356.7097168 2618.2783203 2879.8261719 3402.8566895 2095.1425781 1048.4998779
          3141.3422852 1833.5952148 3402.8439941 1310.3480225 0 3664.3010254
          3664.284668 262.3944397 2618.262207 524.70947266 3664.2590332 2356.730957
          2879.7941895 786.86340332 1572.0911865 3664.2512207 3402.8222656 2095.2182617
          3141.309082 1048.8399658 3664.2575684 3402.7983398 1833.7493896 2618.2783203
          3664.262207 1310.6607666 2879.7827148 2356.7900391 0 3925.7006836
          3141.2875977 3925.6870117 262.63937378 3925.6608887 525.13964844 1572.3592529
          3664.2578125 2095.3417969 3402.7788086 787.36358643 3925.6520996 1049.3242188
          3925.6655273 2879.7941895 2618.3227539 3141.2800293 3664.2485352 1833.9678955
          2356.8852539 3925.6835938 1311.0847168 3402.7661133 0 4187.1201172
          263.0675354 4187.1074219 525.82025146 2095.5129395 3664.2404785 4187.0761719
          3925.6933594 1572.7078857 2879.8261719 788.08190918 4187.0620117 3141.2875977
          2618.3930664 3402.7614746 4187.0791016 1049.9660645 3925.6965332 1834.2419434
          2357.0141602 3664.2355957 4187.1088867 1311.6113281 3141.309082 3925.6982422
          4448.5537109 2095.7207031 0 3402.7661133 2879.8759766 263.98968506
          4448.5410156 1573.1181641 4187.1308594 526.97509766 4448.5014648 2618.4868164
          3664.2329102 4448.4785156 789.11529541 1834.5499268 1050.7868652 4448.4970703
          4187.144043 2357.1665039 3925.6992188 3141.3422852 3402.7788086 1312.227417
          4448.5371094 2879.9411621 3664.2355957 4187.1538086 2095.9443359 4709.9960938
          0 1573.5648193 4709.9824219 4448.5703125 2618.5939941 266.21444702
          3925.6984863 529.065979 4709.9326172 4709.8979492 790.67016602 2357.3232422
          4187.159668 3402.7983398 4448.5932617 1834.8647461 3664.2404785 1051.8790283
          3141.3845215 4709.9169922 3925.6992188 2880.0126953 4709.9672852 1312.9797363
          4448.6098633 2096.159668 2618.6989746 4187.1611328 1574.0756836 4710.0126953
          0 4971.440918 270.05380249 4971.4272461 3664.2485352 4971.3657227
          531.83837891 3402.8222656 3141.4279785 3925.6982422 2357.4650879 792.50592041
          4971.3173828 4448.6196289 1835.2055664 4710.0458984 4187.159668 1053.1077881
          2880.0778809 4971.3364258 4971.3989258 1313.8114014 4710.0698242 2096.3818359
          2618.7873535 4448.6235352 3664.2578125 3925.6965332 3402.8439941 4971.4589844
          1574.6395264 4187.1538086 5232.8818359 3141.4633789 0 270.7069397
          5232.8681641 532.69915771 5232.7954102 2357.6052246 4710.0854492 793.24133301
          5232.7319336 1835.5852051 4448.6196289 4971.5043945 2880.1281738 1053.6602783
          5232.7514648 3925.6933594 3664.262207 2618.8718262 4710.0908203 2096.6340332
          5232.8295898 4971.5390625 3402.8566895 4187.144043 1314.2094727 4448.6098633
          3141.4870605 1574.921875 5232.9086914 5494.3081055 5494.2963867 2357.7700195
          4971.5620117 5494.2138672 2880.1760254 4710.0854492 5232.9707031 1835.7836914
          3925.6835938 5494.1362305 4187.1308594 3664.2575684 5494.1586914 4448.5932617
          3402.8620605 4971.5693359 2618.9775391 2096.7722168 5233.0205078 5494.2583008
          3141.512207 4710.0698242 5494.3623047 5233.0541992 2357.8654785 4187.1088867
          3925.6655273 4971.5620117 2880.2434082 5755.7084961 5755.7011719 3664.2512207
          4448.5703125 5755.612793 5494.4467773 4710.0458984 5755.5224609 3402.8747559
          5755.5522461 5233.0625 2619.0427246 3141.5556641 5494.5161133 4971.5390625
          5755.6816406 4187.0791016 3925.6520996 4448.5371094 5755.8193359 4710.0126953
          3664.2590332 5233.0541992 2880.2878418 5494.5600586 6017.0644531 3402.9055176
          4971.5043945 6017.0668945 6016.9794922 5755.9335938 6016.8803711 5494.5712891
          3141.5861816 5233.0205078 6016.925293 4448.4970703 4187.0620117 5756.0249023
          3925.6608887 4709.9672852 6017.0961914 4971.4589844 3664.284668 5494.5600586
          6017.2807617 5756.0791016 3402.927002 5232.9707031 6278.3535156 6278.371582
          6017.434082 4448.4785156 6278.2963867 4709.9169922 4187.0761719 5756.097168
          6278.1982422 5494.5161133 4971.3989258 3925.6870117 6278.2695313 6017.5522461
          5232.9086914 3664.3010254 6278.4990234 5756.0791016 5494.4467773 6017.6225586
          6278.7485352 4448.5014648 4709.8979492 4971.3364258 4187.1074219 6278.9575195
          6539.5439453 3925.7006836 5232.8295898 6539.5864258 5756.0249023 6017.6494141
          6539.5410156 6539.4580078 5494.3623047 6279.1152344 6539.5732422 4709.9326172
          6017.6225586 6539.8857422 4971.3173828 4448.5410156 5755.9335938 5232.7514648
          4187.1201172 6279.2158203 6540.2270508 5494.2583008 6017.5522461 6540.5161133
          6800.5927734 6279.2519531 6800.6728516 5755.8193359 6800.6831055 6800.6376953
          4971.3657227 4709.9824219 6540.7407227 5232.7319336 4448.5537109 6800.8222656
          5494.1586914 6279.2158203 6017.434082 6801.2519531 6540.8916016 5755.6816406
          6801.722168 6279.1152344 4971.4272461 5232.7954102 4709.9960938 6802.1269531
          6540.9345703 6017.2807617 7061.4423828 5494.1362305 7061.578125 7061.6811523
          7061.7075195 6802.4536133 5755.5522461 7061.9995117 6278.9575195 6540.8916016
          7062.59375 6017.0961914 6802.6674805 5232.8681641 4971.440918 5494.2138672
          7063.2412109 6540.7407227 6278.7485352 5755.5224609 6802.7197266 7063.8051758
          7322.0175781 7322.2329102 6016.925293 7322.4819336 7064.2631836 7322.6308594
          6540.5161133 6802.6674805 7323.0830078 5232.8818359 6278.4990234 5494.2963867
          5755.612793 7323.9072266 7064.5424805 6016.8803711 6802.4536133 7324.7958984
          6540.2270508 7064.6176758 6278.2695313 7325.5698242 5494.3081055 7582.2177734
          7582.5454102 6802.1269531 7583.0141602 5755.7011719 7326.1791992 6539.8857422
          7064.5424805 7583.3588867 6016.9794922 7584.0483398 6278.1982422 7326.5322266
          7585.1899414 6801.722168 7064.2631836 7586.4052734 6539.5732422 7326.6542969
          5755.7084961 6017.0668945 7587.4541016 7063.8051758 7841.9106445 6278.2963867
          6801.2519531 7842.3950195 7843.1855469 7326.5322266 7588.2495117 7843.8291016
          6539.4580078 7844.8623047 7588.7265625 7063.2412109 7846.4370117 7326.1791992
          6017.0644531 6800.8222656 7848.0957031 6278.371582 7588.9101563 7849.5214844
          6539.5410156 7325.5698242 7062.59375 8100.925293 7588.7265625 8101.6240234
          7850.5996094 8102.8745117 6800.6376953 8103.9599609 6278.3535156 8105.4780273
          7324.7958984 7851.2993164 7061.9995117 7588.2495117 8107.6416016 6539.5864258
          8109.9067383 7851.5351563 6800.6831055 7323.9072266 8111.8706055 7587.4541016
          7061.7075195 7851.2993164 8359.0380859 8113.4052734 8360.0273438 6539.5439453
          8361.921875 8363.6435547 7586.4052734 6800.6728516 8365.8378906 7323.0830078
          8114.4257813 7850.5996094 8368.8027344 7061.6811523 8371.8994141 8114.6958008
          7585.1899414 7849.5214844 8374.6220703 7322.6308594 6800.5927734 8114.4257813
          8376.8085938 8615.9619141 7061.578125 8617.3408203 8620.125 7848.0957031
          7584.0483398 8622.7451172 8113.4052734 8378.1845703 8625.8808594 7322.4819336
          8629.9443359 8378.5205078 7846.4370117 8634.1669922 7061.4423828 8111.8706055
          7583.3588867 8637.8974609 7322.2329102 8378.1845703 8640.8681641 7844.8623047
          8871.3271484 8873.2255859 8109.9067383 8877.2226563 7583.0141602 8881.1005859
          8376.8085938 8642.6044922 8885.5507813 8891.1142578 7322.0175781 8107.6416016
          8643.1240234 7843.8291016 8896.8291016 8374.6220703 7582.5454102 8901.8291016
          8642.6044922 8105.4780273 8371.8994141 8905.6777344 7843.1855469 9124.6621094
          9127.2451172 9132.8789063 8640.8681641 9138.4980469 8907.9179688 9144.7636719
          7582.2177734 8368.8027344 8103.9599609 9152.3330078 8908.7724609 8637.8974609
          7842.3950195 9160.0009766 9166.6318359 8907.9179688 8365.8378906 8102.8745117
          8634.1669922 9171.6367188 9375.3662109 9378.84375 9386.6542969 7841.9106445
          8905.6777344 9394.6416016 9174.7851563 9403.3505859 8363.6435547 8629.9443359
          9413.5556641 8101.6240234 8901.8291016 9176.0234375 9423.8144531 9432.7207031
          8625.8808594 9174.7851563 8361.921875 8896.8291016 9439.5712891 8100.925293
          9622.6757813 9171.6367188 9627.3046875 9637.96875 9444.1464844 9649.1132813
          8622.7451172 8891.1142578 9661.0488281 8360.0273438 9674.7255859 9166.6318359
          9445.6523438 9688.5322266 8885.5507813 8620.125 9444.1464844 9700.7431641
          9160.0009766 8359.0380859 9710.4394531 9439.5712891 9865.6279297 8881.1005859
          9871.7265625 9886.0830078 9716.71875 9152.3330078 8617.3408203 9901.3808594
          9917.6035156 9432.7207031 9718.390625 9935.9726563 9954.6572266 8877.2226563
          9144.7636719 8615.9619141 9716.71875 9423.8144531 9971.4160156 9984.8320313
          9710.4394531 9138.4980469 8873.2255859 9413.5556641 10103.023438 10110.980469
          9992.8378906 10130.074219 10150.834961 10172.858398 9700.7431641 9994.8916016
          10197.649414 9132.8789063 9403.3505859 8871.3271484 10222.797852 9992.8378906
          9688.5322266 10245.296875 10263.053711 9394.6416016 9127.2451172 9984.8320313
          9674.7255859 10333.374023 10343.660156 10273.263672 10368.764648 10396.694336
          9971.4160156 10426.540039 9386.6542969 10276.291992 9124.6621094 10459.869141
          9661.0488281 10493.241211 9954.6572266 10273.263672 10522.905273 9378.84375
          9649.1132813 10546.176758 10263.053711 9935.9726563 10560.412109 10554.84082
          10567.988281 10600.561523 10637.680664 10245.296875 9637.96875 9375.3662109
          10677.657227 9917.6035156 10565.072266 10721.839844 10765.900391 10222.797852
          10560.412109 10805.4375 9627.3046875 9901.3808594 10546.176758 10837.125977
          10197.649414 10858.37207 10765.155273 10781.705078 9886.0830078 10823.262695
          10522.905273 9622.6757813 10871.666992 10172.858398 10924.183594 10865.186523
          10982.165039 10493.241211 11041.21875 10858.37207 9871.7265625 10150.834961
          11095.446289 10459.869141 10837.125977 11140.232422 9865.6279297 11171.139648
          10130.074219 10961.585938 10805.4375 10982.039063 11034.010742 10426.540039
          11095.822266 11180.943359 11163.916992 11240.486328 10765.900391 10110.980469
          11321.086914 11171.139648 10396.694336 11396.49707 10721.839844 11140.232422
          11459.53418 10103.023438 10368.764648 11501.517578 11095.446289 11140.974609
          10677.657227 11165.776367 11229.489258 11307.262695 11516.214844 11395.603516
          11041.21875 11497.59375 10343.660156 11501.517578 10637.680664 11607.029297
          11711.196289 10982.165039 11459.53418 10333.374023 11798.175781 10600.561523
          11853.461914 11396.49707 10924.183594 11299.837891 11329.316406 11405.923828
          11502.727539 11876.076172 11616.688477 10567.988281 11321.086914 11750.135742
          10871.666992 11853.461914 11895.15332 11240.486328 12039.40332 11798.175781
          10554.84082 10823.262695 12161.302734 11711.196289 11163.916992 12238.608398
          11434.449219 11468.540039 11558.137695 12272.338867 11675.332031 10781.705078
          11817.025391 11607.029297 11095.822266 11985.378906 12238.608398 12175.727539
          11497.59375 10765.155273 12380.574219 12161.302734 11034.010742 12563.001953
          11395.603516 12039.40332 12686.029297 11540.988281 11578.541016 10982.039063
          11677.734375 12732.53125 11811.382813 11895.15332 11978.84375 11307.262695
          12185.868164 12686.029297 12435.274414 10961.585938 11750.135742 12728.295898
          11229.489258 12563.001953 13018.442383 11616.688477 12380.574219 13235.032227
          11165.776367 11616.167969 11654.564453 11756.466797 13302.986328 12175.727539
          11900.137695 11502.727539 12089.988281 12337.263672 13235.032227 11140.974609
          12654.523438 11985.378906 11405.923828 13059.515625 13018.442383 13517.160156
          11817.025391 12728.295898 13921.668945 11329.316406 11659.027344 11696.777344
          14074.952148 12435.274414 11795.475586 11675.332031 11944.150391 12149.717773
          13921.668945 11299.837891 12425.828125 12185.868164 12792.251953 11558.137695
          13517.160156 13304.321289 14003.448242 11978.84375 13059.515625 11468.540039
          14848.146484 11811.382813 11673.022461 12654.523438 11710.916016 15344.09082
          11805.979492 11955.103516 12163.382813 11434.449219 14848.146484 12450.980469
          12337.263672 11677.734375 12875.655273 14003.448242 13532.93457 12089.988281
          14642.375977 13304.321289 11578.541016 16107.9375 11900.137695 12792.251953
          16633.728516 11540.988281 16107.9375 12425.828125 11756.466797 14642.375977
          12149.717773 11654.564453 13532.93457 11944.150391 12875.655273 11616.167969
          11795.475586 12450.980469 12163.382813 11696.777344 11955.103516 11659.027344
          11805.979492 11710.916016 11673.022461
        </DataArray>
        <DataArray type="Float32" Name="VELOCITY" NumberOfComponents="3" ComponentName0="X-VELOCITY" ComponentName1="Y-VELOCITY" ComponentName2="Z-VELOCITY" format="ascii" RangeMin="0" RangeMax="97.612709045">
          0 0 0 0 0 0
          15.661704063 -0.027593962848 0 15.520653725 -0.014664703049 0
          28.968709946 -0.0088400747627 0 0 0 0
          15.490270615 -0.0083646308631 0 28.950654984 -0.016664678231 0
          28.9432621 -0.013466960751 0 40.135978699 -0.013514457271 0
          0 0 0 15.483979225 -0.0048736189492 0
          40.122901917 -0.015534376726 0 40.11605072 -0.01369249355 0
          28.941812515 -0.0098418649286 0 49.89692688 -0.0092037459835 0
          0 0 0 15.482575417 -0.0032437029295 0
          49.891536713 -0.010948219337 0 40.113033295 -0.010825320147 0
          28.942378998 -0.0072391866706 0 49.887359619 -0.010429741815 0
          40.111774445 -0.0083112576976 0 58.10212326 -0.0065320865251 0
          0 0 0 49.884838104 -0.0088904406875 0
          58.099338531 -0.0076611340046 0 15.481801987 -0.0024797858205 0
          28.943347931 -0.0054919309914 0 58.096580505 -0.0076987957582 0
          49.883426666 -0.0072186547332 0 40.11126709 -0.0063829300925 0
          58.094409943 -0.006983098574 0 0 0 0
          64.036270142 -0.0046979743056 0 64.034309387 -0.0053832884878 0
          15.480978012 -0.0020536431111 0 64.032203674 -0.0055550821126 0
          28.944231033 -0.004282232374 0 58.092868805 -0.0059728748165 0
          49.882648468 -0.0057478290983 0 40.111057281 -0.0049446066841 0
          64.030288696 -0.0052438024431 0 0 0 0
          65.624275208 -0.0031690329779 0 58.091808319 -0.004943266511 0
          15.480132103 -0.0017467089929 0 65.622703552 -0.0035759159364 0
          64.02872467 -0.0046563735232 0 49.882213593 -0.0045469854958 0
          28.94493866 -0.0033953757957 0 65.620994568 -0.003737149993 0
          40.110969543 -0.0038645474706 0 65.61933136 -0.003617370734 0
          64.027503967 -0.0039724311791 0 58.091079712 -0.0040163523518 0
          69.325241089 -0.0018888742197 0 0 0 0
          65.617851257 -0.0032966122963 0 15.479353905 -0.0014840945369 0
          69.324058533 -0.0021426938474 0 49.881961823 -0.0035937649664 0
          28.945489883 -0.0027130628005 0 69.322792053 -0.00226468849 0
          64.026573181 -0.0033021233976 0 69.321517944 -0.0022302183788 0
          40.110923767 -0.0030416569207 0 58.090568542 -0.0032302695327 0
          65.616600037 -0.0028764831368 0 69.320327759 -0.002068096539 0
          49.88180542 -0.0028447816148 0 81.336082458 -0.00091178528965 0
          0 0 0 15.478693008 -0.0012464288156 0
          81.335128784 -0.0010366694769 0 65.615585327 -0.0024373978376 0
          28.945922852 -0.0021733506583 0 64.025871277 -0.0027013053186 0
          81.334068298 -0.0011037933873 0 69.319274902 -0.0018340989482 0
          58.090198517 -0.0025853726547 0 40.110897064 -0.0024075140245 0
          81.332969666 -0.00109328283 0 49.881706238 -0.0022589305881 0
          81.331916809 -0.0010197341908 0 65.614768982 -0.0020304743666 0
          89.963500977 9.8221256161e-014 0 69.318389893 -0.0015814192593 0
          0 0 0 64.025337219 -0.0021915750112 0
          15.478162766 -0.0010318866698 0 89.962547302 9.0953584725e-014 0
          28.946266174 -0.0017419873038 0 89.961486816 6.9871280257e-014 0
          58.089927673 -0.0020672513638 0 81.330955505 -0.00091221416369 0
          40.110881805 -0.0019162335666 0 89.960388184 2.3733144898e-014 0
          69.317649841 -0.0013437566813 0 65.614135742 -0.0016774121905 0
          89.959327698 -2.7751281159e-014 0 49.881637573 -0.0018024755409 0
          64.024932861 -0.0017723275814 0 81.330108643 -0.00079691025894 0
          0 0 0 81.336082458 0.00091178528965 0
          15.477758408 -0.00084182521095 0 81.335128784 0.0010366694769 0
          28.94654274 -0.0013971161097 0 58.089725494 -0.0016559985233 0
          81.334068298 0.0011037933873 0 89.958358765 -7.0882529176e-014 0
          69.317054749 -0.0011280218605 0 81.332969666 0.00109328283 0
          65.613639832 -0.0013743992895 0 40.110874176 -0.001535657444 0
          81.329391479 -0.00068552297307 0 89.957489014 -1.100228849e-013 0
          64.024627686 -0.0014289387036 0 81.331916809 0.0010197341908 0
          49.881591797 -0.0014483777341 0 69.325241089 0.0018888742197 0
          0 0 0 69.324058533 0.0021426938474 0
          69.316551208 -0.00092296273215 0 15.477467537 -0.00067624548683 0
          81.328773499 -0.00057445274433 0 58.089572906 -0.0013303041924 0
          81.330955505 0.00091221416369 0 69.322792053 0.00226468849 0
          28.946763992 -0.0011221899185 0 65.613235474 -0.0011061283294 0
          89.956733704 -1.49058649e-013 0 69.321517944 0.0022302183788 0
          40.110870361 -0.0012417413527 0 64.024375916 -0.0011434836779 0
          81.330108643 0.00079691025894 0 69.320327759 0.002068096539 0
          49.881557465 -0.0011747502722 0 81.328262329 -0.00045820817468 0
          69.316131592 -0.00072363950312 0 89.956100464 -1.7046798272e-013 0
          65.624275208 0.0031690329779 0 0 0 0
          69.319274902 0.0018340989482 0 58.089447021 -0.0010712245712 0
          65.612892151 -0.00086767360335 0 65.622703552 0.0035759159364 0
          15.477280617 -0.00053292734083 0 81.329391479 0.00068552297307 0
          28.946941376 -0.000902939355 0 65.620994568 0.003737149993 0
          65.61933136 0.003617370734 0 40.110866547 -0.0010152729228 0
          69.318389893 0.0015814192593 0 64.024162292 -0.00090674532112 0
          89.955581665 -1.7584681812e-013 0 81.327850342 -0.00034752636566 0
          69.315788269 -0.00055213598534 0 49.881530762 -0.00096379889874 0
          81.328773499 0.00057445274433 0 65.617851257 0.0032966122963 0
          65.612609863 -0.00067627307726 0 69.317649841 0.0013437566813 0
          58.089336395 -0.00086545129307 0 65.616600037 0.0028764831368 0
          64.036270142 0.0046979743056 0 0 0 0
          15.47718811 -0.00040768145118 0 64.034309387 0.0053832884878 0
          89.955192566 -1.7930923131e-013 0 64.032203674 0.0055550821126 0
          28.947078705 -0.00072603276931 0 81.328262329 0.00045820817468 0
          81.327537537 -0.00027091585798 0 64.030288696 0.0052438024431 0
          65.615585327 0.0024373978376 0 40.110862732 -0.00083982519573 0
          64.023986816 -0.00072170497151 0 69.317054749 0.0011280218605 0
          69.31552887 -0.000446095597 0 64.02872467 0.0046563735232 0
          49.881500244 -0.00080083607463 0 65.61239624 -0.00055405241437 0
          65.614768982 0.0020304743666 0 81.327850342 0.00034752636566 0
          58.089241028 -0.00070474855602 0 64.027503967 0.0039724311791 0
          89.95488739 -1.820833523e-013 0 69.316551208 0.00092296273215 0
          58.10212326 0.0065320865251 0 0 0 0
          81.327308655 -0.000247213291 0 15.477185249 -0.00029475940391 0
          58.099338531 0.0076611340046 0 28.947177887 -0.00057832663879 0
          58.096580505 0.0076987957582 0 64.026573181 0.0033021233976 0
          64.023849487 -0.0005910701002 0 65.614135742 0.0016774121905 0
          69.315361023 -0.00041174105718 0 58.094409943 0.006983098574 0
          40.110858917 -0.00070025655441 0 58.092868805 0.0059728748165 0
          49.881473541 -0.0006727281725 0 81.327537537 0.00027091585798 0
          69.316131592 0.00072363950312 0 89.954612732 -1.6833156234e-013 0
          65.612266541 -0.00048917566892 0 64.025871277 0.0027013053186 0
          65.613639832 0.0013743992895 0 58.089168549 -0.00058033387177 0
          58.091808319 0.004943266511 0 81.327102661 -0.00024953982211 0
          49.89692688 0.0092037459835 0 0 0 0
          49.891536713 0.010948219337 0 15.477272034 -0.00018714350881 0
          49.887359619 0.010429741815 0 64.025337219 0.0021915750112 0
          69.315238953 -0.00038602785207 0 28.947244644 -0.00044631818309 0
          64.023765564 -0.00049741851399 0 58.091079712 0.0040163523518 0
          69.315788269 0.00055213598534 0 49.884838104 0.0088904406875 0
          40.110843658 -0.00058160617482 0 81.327308655 0.000247213291 0
          65.613235474 0.0011061283294 0 89.954330444 -1.573532293e-013 0
          49.881446838 -0.00056621391559 0 49.883426666 0.0072186547332 0
          65.612174988 -0.00041760070599 0 58.090568542 0.0032302695327 0
          64.024932861 0.0017723275814 0 81.326889038 -0.0002081447019 0
          58.089115143 -0.00047673142399 0 49.882648468 0.0057478290983 0
          69.31552887 0.000446095597 0 69.315078735 -0.00027081245207 0
          0 0 0 58.090198517 0.0025853726547 0
          40.135978699 0.013514457271 0 81.327102661 0.00024953982211 0
          65.612892151 0.00086767360335 0 40.122901917 0.015534376726 0
          15.477449417 -7.6675649325e-005 0 49.882213593 0.0045469854958 0
          64.023696899 -0.0003990935802 0 40.11605072 0.01369249355 0
          28.947275162 -0.00031569530256 0 64.024627686 0.0014289387036 0
          89.954086304 -1.3402511522e-013 0 40.110824585 -0.00046850473154 0
          40.113033295 0.010825320147 0 49.881961823 0.0035937649664 0
          40.111774445 0.0083112576976 0 49.881416321 -0.00046720899991 0
          65.6120224 -0.00026632187655 0 58.089927673 0.0020672513638 0
          81.326690674 -7.7566459368e-005 0 65.612609863 0.00067627307726 0
          69.315361023 0.00041174105718 0 40.11126709 0.0063829300925 0
          58.089069366 -0.00037188015995 0 64.024375916 0.0011434836779 0
          81.326889038 0.0002081447019 0 69.314872742 -4.2559891881e-005 0
          49.88180542 0.0028447816148 0 0 0 0
          28.968709946 0.0088400747627 0 40.111057281 0.0049446066841 0
          15.477725029 4.6009627113e-005 0 64.023582458 -0.00025653358898 0
          58.089725494 0.0016559985233 0 28.950654984 0.016664678231 0
          89.953987122 -1.066466319e-013 0 28.9432621 0.013466960751 0
          28.94726944 -0.00017082570412 0 40.110794067 -0.00034484299249 0
          28.941812515 0.0098418649286 0 49.881706238 0.0022589305881 0
          81.32660675 8.2055637904e-005 0 65.61239624 0.00055405241437 0
          65.611785889 -3.9145485061e-005 0 40.110969543 0.0038645474706 0
          69.315238953 0.00038602785207 0 28.942378998 0.0072391866706 0
          64.024162292 0.00090674532112 0 49.881381989 -0.00036080827704 0
          81.326690674 7.7566459368e-005 0 58.089572906 0.0013303041924 0
          58.089008331 -0.00024444653536 0 28.943347931 0.0054919309914 0
          69.314697266 0.00016642082483 0 40.110923767 0.0030416569207 0
          49.881637573 0.0018024755409 0 89.954071045 -8.0468719524e-014 0
          28.944231033 0.004282232374 0 64.023406982 -7.1128488344e-005 0
          15.661704063 0.027593962848 0 0 0 0
          15.520653725 0.014664703049 0 15.478110313 0.000191821935 0
          65.612266541 0.00048917566892 0 28.947221756 6.096818197e-006 0
          15.490270615 0.0083646308631 0 64.023986816 0.00072170497151 0
          58.089447021 0.0010712245712 0 69.315078735 0.00027081245207 0
          40.110897064 0.0024075140245 0 15.483979225 0.0048736189492 0
          40.110752106 -0.00019269935729 0 81.326683044 0.00011857085337 0
          28.94493866 0.0033953757957 0 65.611549377 0.00014725548681 0
          81.32660675 -8.2055637904e-005 0 15.482575417 0.0032437029295 0
          49.881591797 0.0014483777341 0 49.881340027 -0.00022978274501 0
          58.088916779 -8.1308477093e-005 0 15.481801987 0.0024797858205 0
          69.314720154 0.00015490275109 0 28.945489883 0.0027130628005 0
          40.110881805 0.0019162335666 0 89.954193115 -5.6535183571e-014 0
          64.023849487 0.0005910701002 0 65.612174988 0.00041760070599 0
          58.089336395 0.00086545129307 0 64.023216248 0.00010732893134 0
          15.480978012 0.0020536431111 0 69.314872742 4.2559891881e-005 0
          0 0 0 49.881557465 0.0011747502722 0
          0 0 0 0 0 0
          15.478619576 0.00037383419112 0 0 0 0
          28.947128296 0.00023642591259 0 28.945922852 0.0021733506583 0
          81.326850891 -5.1453975175e-005 0 0 0 0
          40.110694885 1.0340752851e-005 0 15.480132103 0.0017467089929 0
          81.326683044 -0.00011857085337 0 65.611495972 0.00016289847554 0
          40.110874176 0.001535657444 0 0 0 0
          49.881282806 -5.1236147556e-005 0 64.023765564 0.00049741851399 0
          58.089241028 0.00070474855602 0 28.946266174 0.0017419873038 0
          89.954124451 -4.0319611934e-014 0 15.479353905 0.0014840945369 0
          58.088817596 0.00012180446356 0 69.314971924 -9.298833902e-005 0
          49.881530762 0.00096379889874 0 65.6120224 0.00026632187655 0
          0 0 0 69.314697266 -0.00016642082483 0
          40.110870361 0.0012417413527 0 0 0 0
          64.023147583 0.0002324822417 0 0 0 0
          15.479272842 0.00060804199893 0 15.478693008 0.0012464288156 0
          81.326896667 -0.00026032497408 0 28.946977615 0.00054676091531 0
          28.94654274 0.0013971161097 0 81.326850891 5.1453975175e-005 0
          65.611701965 5.6055778259e-005 0 0 0 0
          58.089168549 0.00058033387177 0 40.110622406 0.00029445055407 0
          64.023696899 0.0003990935802 0 49.881500244 0.00080083607463 0
          49.881206512 0.00020364658849 0 65.611785889 3.9145485061e-005 0
          40.110866547 0.0010152729228 0 89.953788757 -3.6566815521e-014 0
          15.478162766 0.0010318866698 0 0 0 0
          69.315231323 -0.000231452359 0 58.088760376 0.00036754267057 0
          28.946763992 0.0011221899185 0 69.314720154 -0.00015490275109 0
          64.023277283 0.00034471219988 0 81.326705933 -0.00014018733054 0
          0 0 0 58.089115143 0.00047673142399 0
          49.881473541 0.0006727281725 0 81.326896667 0.00026032497408 0
          15.477758408 0.00084182521095 0 0 0 0
          15.48009491 0.00091409520246 0 40.110862732 0.00083982519573 0
          64.023582458 0.00025653358898 0 28.946760178 0.00097056356026 0
          65.611953735 0.00013600430975 0 65.611549377 -0.00014725548681 0
          40.110519409 0.00069850118598 0 28.946941376 0.000902939355 0
          49.881126404 0.00056307332125 0 89.953559875 -4.3792447018e-014 0