<?xml version="1.0"?>
<VTKFile type="PolyData" version="0.1" byte_order="LittleEndian" compressor="vtkZLibDataCompressor">
  <PolyData>
    <Piece NumberOfPoints="1071" NumberOfVerts="0" NumberOfLines="0" NumberOfStrips="0" NumberOfPolys="2000">
      <PointData>
        <DataArray type="Float32" Name="PRESSURE" format="ascii" RangeMin="-18686.548828" RangeMax="0">
          0 -339.58831787 0 -337.8956604 0 -664.27429199
          -661.48040771 -327.60464478 -650.72009277 0 -986.15332031 -983.12182617
          -323.14862061 -645.68121338 -972.37341309 0 -1307.3636475 -1304.2922363
          -320.51937866 -967.31799316 -1293.4018555 -641.91088867 -1288.2515869 0
          -1628.1669922 -963.03753662 -320.59976196 -1625.0539551 -1613.9355469 -641.49389648
          -1283.6602783 -1608.5899658 -962.20837402 -1948.5111084 0 -320.13583374
          -1945.3302002 -640.51843262 -1933.9681396 -1282.5314941 -1603.7590332 -1928.3740234
          -960.79663086 -2268.3137207 0 -1602.3942871 -2265.052002 -320.01318359
          -1280.7854004 -1923.34021 -2253.4707031 -640.09295654 -2247.6096191 -960.06274414
          -1600.3920898 -1921.7702637 0 -2587.5056152 -1279.7905273 -2584.1640625
          -319.87411499 -2242.3996582 -2572.4089355 -639.74511719 -1919.564209 -959.49554443
          -2566.2834473 -2240.6394043 -1599.1854248 -1279.0275879 -2560.9206543 0
          -2906.0292969 -2902.6184082 -319.8142395 -1918.1833496 -2890.746582 -2238.263916
          -639.57434082 -1598.2584229 -2558.9787598 -2884.3720703 -959.20080566 -2878.8796387
          -1278.6157227 -2236.7355957 0 -1917.1210938 -3223.8369141 -2556.458252
          -3220.3720703 -319.80316162 -3208.4460449 -639.52111816 -2876.7624512 -1597.7443848
          -3201.847168 -959.10131836 -2235.5605469 -2554.8012695 -1278.4720459 -3196.2487793
          -2874.1157227 -1916.5206299 -3540.8869629 0 -3537.3867188 -319.8142395
          -3525.4711914 -3193.9633789 -639.57434082 -1597.5612793 -2553.5307617 -959.20080566
          -2872.3442383 -3518.6789551 -2234.887207 -1916.3031006 -3191.2062988 -1278.6157227
          -3512.9992676 0 -3857.1437988 -319.87411499 -2870.9919434 -3853.6279297
          -2552.795166 -3510.5539551 -1597.7443848 -639.74511719 -3841.7885742 -3189.3320313
          -2234.6398926 -959.49554443 -3834.8395996 -3507.7011719 -1916.5206299 -1279.0275879
          -3829.1032715 -2870.2023926 -3187.9084473 -2552.5222168 0 -4172.5791016
          -1598.2584229 -3826.5083008 -3505.7348633 -320.01318359 -4169.0678711 -2234.887207
          -4157.3691406 -640.09295654 -960.06274414 -4150.3032227 -1917.1210938 -3823.5737305
          -2869.9067383 -3187.0717773 -3504.2492676 -4144.5361328 -2552.795166 -1279.7905273
          -3821.5256348 -2235.5605469 -4141.8027344 -1599.1854248 0 -4487.1708984
          -4483.6850586 -320.13583374 -3186.7561035 -640.51843262 -4472.1894531 -2870.2023926
          -3503.371582 -960.79663086 -1918.1833496 -4465.0483398 -4138.800293 -2553.5307617
          -3819.9865723 -1280.7854004 -4459.2749023 -4136.6806641 -2236.7355957 -3187.0717773
          -4456.4169922 -1600.3920898 -3503.0383301 -2870.9919434 0 -4800.9057617
          -3819.0732422 -4797.4663086 -320.59976196 -4786.2319336 -641.49389648 -1919.564209
          -4453.3598633 -2554.8012695 -4135.0966797 -962.20837402 -4779.0585938 -1282.5314941
          -4773.3032227 -3503.371582 -3187.9084473 -3818.7246094 -4451.1782227 -2238.263916
          -2872.3442383 -4770.3339844 -1602.3942871 -4134.1523438 0 -5113.7802734
          -320.51937866 -5110.4057617 -641.91088867 -2556.458252 -4449.5566406 -5099.4873047
          -4767.2348633 -1921.7702637 -3504.2492676 -963.03753662 -5092.3232422 -3819.0732422
          -3189.3320313 -4133.7900391 -5086.6069336 -1283.6602783 -4765.0009766 -2240.6394043
          -2874.1157227 -4448.5859375 -5083.5400391 -1603.7590332 -3819.9865723 -4763.3486328
          -5425.796875 -2558.9787598 0 -4134.1523438 -3505.7348633 -323.14862061
          -5422.5063477 -1923.34021 -5080.4106445 -645.68121338 -5411.9521484 -3191.2062988
          -4448.2124023 -5404.8369141 -967.31799316 -2242.3996582 -1288.2515869 -5399.1772461
          -5078.1342773 -2876.7624512 -4762.3544922 -3821.5256348 -4135.0966797 -1608.5899658
          -5396.0253906 -3507.7011719 -4448.5859375 -5076.456543 -2560.9206543 -5736.9682617
          0 -1928.3740234 -5733.7783203 -5392.8769531 -3193.9633789 -327.60464478
          -4761.9716797 -650.72009277 -5723.6308594 -5716.5986328 -972.37341309 -2878.8796387
          -5075.4438477 -4136.6806641 -5390.5664063 -2247.6096191 -4449.5566406 -1293.4018555
          -3823.5737305 -5711.0107422 -4762.3544922 -3510.5539551 -5707.7856445 -1613.9355469
          -5388.8696289 -2566.2834473 -3196.2487793 -5075.0537109 -1933.9681396 -5704.6264648
          0 -6047.3125 -337.8956604 -6044.2397461 -4451.1782227 -6034.5336914
          -661.48040771 -4138.800293 -3826.5083008 -4763.3486328 -2884.3720703 -983.12182617
          -6027.6147461 -5387.8422852 -2253.4707031 -5702.2900391 -5075.4438477 -1304.2922363
          -3512.9992676 -6022.1069336 -6018.8168945 -1625.0539551 -5700.5800781 -2572.4089355
          -3201.847168 -5387.4462891 -4453.3598633 -4765.0009766 -4141.8027344 -6015.6542969
          -1945.3302002 -5076.456543 -6356.8544922 -3829.1032715 0 -339.58831787
          -6353.9121094 -664.27429199 -6344.6762695 -2890.746582 -5699.5429688 -986.15332031
          -6337.8930664 -2265.052002 -5387.8422852 -6013.2993164 -3518.6789551 -1307.3636475
          -6332.46875 -4767.2348633 -4456.4169922 -3208.4460449 -5699.1411133 -2584.1640625
          -6329.1201172 -6011.5820313 -4144.5361328 -5078.1342773 -1628.1669922 -5388.8696289
          -3834.8395996 -1948.5111084 -6325.9584961 -6665.6196289 -6662.8212891 -2902.6184082
          -6010.5371094 -6654.0756836 -3525.4711914 -5699.5429688 -6323.5893555 -2268.3137207
          -4770.3339844 -6647.4458008 -5080.4106445 -4459.2749023 -6642.1020508 -5390.5664063
          -4150.3032227 -6010.1308594 -3220.3720703 -2587.5056152 -6321.8676758 -6638.6967773
          -3841.7885742 -5700.5800781 -6635.5375977 -6320.8149414 -2906.0292969 -5083.5400391
          -4773.3032227 -6010.5371094 -3537.3867188 -6973.6347656 -6970.9921875 -4465.0483398
          -5392.8769531 -6962.7519531 -6633.1572266 -5702.2900391 -6956.2841797 -4157.3691406
          -6951.0117188 -6320.40625 -3223.8369141 -3853.6279297 -6631.4306641 -6011.5820313
          -6947.5488281 -5086.6069336 -4779.0585938 -5396.0253906 -6944.3911133 -5704.6264648
          -4472.1894531 -6320.8149414 -3540.8869629 -6630.3691406 -7280.9208984 -4169.0678711
          -6013.2993164 -7278.4453125 -7270.7211914 -6942.0009766 -7264.4189453 -6629.9599609
          -3857.1437988 -6321.8676758 -7259.2036133 -5399.1772461 -5092.3232422 -6940.2675781
          -4786.2319336 -5707.7856445 -7255.6777344 -6015.6542969 -4483.6850586 -6630.3691406
          -7252.5195313 -6939.1987305 -4172.5791016 -6323.5893555 -7587.4912109 -7585.1948242
          -7250.1220703 -5404.8369141 -7577.9951172 -5711.0107422 -5099.4873047 -6938.7900391
          -7571.8579102 -6631.4306641 -6018.8168945 -4797.4663086 -7566.6796875 -7248.3847656
          -6325.9584961 -4487.1708984 -7563.0834961 -6939.1987305 -6633.1572266 -7247.3149414
          -7559.9228516 -5411.9521484 -5716.5986328 -6022.1069336 -5110.4057617 -7557.5224609
          -7893.3452148 -4800.9057617 -6329.1201172 -7891.2416992 -6940.2675781 -7246.9047852
          -7884.5756836 -7878.6005859 -6635.5375977 -7555.7910156 -7873.4370117 -5723.6308594
          -7247.3149414 -7869.7626953 -6027.6147461 -5422.5063477 -6942.0009766 -6332.46875
          -5113.7802734 -7554.7275391 -7866.5991211 -6638.6967773 -7248.3847656 -7864.203125
          -8198.4619141 -7554.3120117 -8196.5683594 -6944.3911133 -8190.4511719 -8184.6376953
          -6034.5336914 -5733.7783203 -7862.4882813 -6337.8930664 -5425.796875 -8179.4663086
          -6642.1020508 -7554.7275391 -7250.1220703 -8175.7075195 -7861.4301758 -6947.5488281
          -8172.5429688 -7555.7910156 -6044.2397461 -6344.6762695 -5736.9682617 -8170.1591797
          -7861.0092773 -7252.5195313 -8502.7949219 -6647.4458008 -8501.1328125 -8495.5917969
          -8489.9462891 -8168.4633789 -6951.0117188 -8484.7490234 -7557.5224609 -7861.4301758
          -8480.9042969 -7255.6777344 -8167.4023438 -6353.9121094 -6047.3125 -6654.0756836
          -8477.7460938 -7862.4882813 -7559.9228516 -6956.2841797 -8166.9833984 -8475.3837891
          -8806.2636719 -8804.8632813 -7259.2036133 -8799.9443359 -8473.7021484 -8794.4873047
          -7864.203125 -8167.4023438 -8789.2558594 -6356.8544922 -7563.0834961 -6662.8212891
          -6962.7519531 -8785.3320313 -8472.6337891 -7264.4189453 -8168.4633789 -8782.1982422
          -7866.5991211 -8472.2294922 -7566.6796875 -8779.8769531 -6665.6196289 -9108.7421875
          -9107.6455078 -8170.1591797 -9103.4228516 -6970.9921875 -8778.2158203 -7869.7626953
          -8472.6337891 -9098.2001953 -7270.7211914 -9092.9433594 -7571.8579102 -8777.1660156
          -9088.9628906 -8172.5429688 -8473.7021484 -9085.890625 -7873.4370117 -8776.7802734
          -6973.6347656 -7278.4453125 -9083.6533203 -8475.3837891 -9410.0537109 -7577.9951172
          -8175.7075195 -9409.3183594 -9405.9052734 -8777.1660156 -9082.0634766 -9400.9970703
          -7878.6005859 -9395.7460938 -9081.0898438 -8477.7460938 -9391.7548828 -8778.2158203
          -7280.9208984 -8179.4663086 -9388.8125 -7585.1948242 -9080.7099609 -9386.7441406
          -7884.5756836 -8779.8769531 -8480.9042969 -9709.9541016 -9081.0898438 -9709.6572266
          -9385.328125 -9707.2216797 -8184.6376953 -9702.7568359 -7587.4912109 -9697.5830078
          -8782.1982422 -9384.4814453 -8484.7490234 -9082.0634766 -9693.6660156 -7891.2416992
          -9690.9609375 -9384.0927734 -8190.4511719 -8785.3320313 -9689.1835938 -9083.6533203
          -8489.9462891 -9384.4814453 -10008.118164 -9688.0517578 -10008.365234 -7893.3452148
          -10007.147461 -10003.324219 -9085.890625 -8196.5683594 -9998.3554688 -8789.2558594
          -9687.3378906 -9385.328125 -9994.6552734 -8495.5917969 -9992.3476563 -9686.9628906
          -9088.9628906 -9386.7441406 -9991.0019531 -8794.4873047 -8198.4619141 -9687.3378906
          -9990.2158203 -10304.128906 -8501.1328125 -10305.056641 -10305.388672 -9388.8125
          -9092.9433594 -10302.50293 -9688.0517578 -9989.6220703 -10297.955078 -8799.9443359
          -10294.69043 -9989.3447266 -9391.7548828 -10292.994141 -8502.7949219 -9689.1835938
          -9098.2001953 -10292.240234 -8804.8632813 -9989.6220703 -10291.844727 -9395.7460938
          -10597.449219 -10599.241211 -9690.9609375 -10601.575195 -9103.4228516 -10600.047852
          -9990.2158203 -10291.466797 -10596.241211 -10593.71582 -8806.2636719 -9693.6660156
          -10291.382813 -9400.9970703 -10592.923828 -9991.0019531 -9107.6455078 -10593.00293
          -10291.466797 -9697.5830078 -9992.3476563 -10593.194336 -9405.9052734 -10887.408203
          -10890.297852 -10895.229492 -10291.844727 -10895.637695 -10593.321289 -10893.010742
          -9108.7421875 -9994.6552734 -9702.7568359 -10891.629883 -10593.442383 -10292.240234
          -9409.3183594 -10892.175781 -10893.543945 -10593.321289 -9998.3554688 -9707.2216797
          -10292.994141 -10894.823242 -11173.170898 -11177.453125 -11185.75293 -9410.0537109
          -10593.194336 -11188.852539 -10895.814453 -11187.992188 -10003.324219 -10294.69043
          -11188.333008 -9709.6572266 -10593.00293 -10896.041016 -11190.885742 -11194.272461
          -10297.955078 -10895.814453 -10007.147461 -10592.923828 -11197.348633 -9709.9541016
          -11453.716797 -10894.823242 -11459.759766 -11472.407227 -11199.380859 -11479.183594
          -10302.50293 -10593.71582 -11480.916992 -10008.365234 -11483.855469 -10893.543945
          -11199.65625 -11489.364258 -10596.241211 -10305.388672 -11199.380859 -11495.649414
          -10892.175781 -10008.118164 -11501.108398 -11197.348633 -11727.813477 -10600.047852
          -11736.073242 -11754.300781 -11504.179688 -10891.629883 -10305.056641 -11766.053711
          -11771.580078 -11194.272461 -11504.726563 -11778.384766 -11788.015625 -10601.575195
          -10893.010742 -10304.128906 -11504.179688 -11190.885742 -11798.053711 -11806.273438
          -11501.108398 -10895.637695 -10599.241211 -11188.333008 -11993.990234 -12005.020508
          -11810.741211 -12030.345703 -12048.758789 -12059.706055 -11495.649414 -11812.089844
          -12071.982422 -10895.229492 -11187.992188 -10597.449219 -12087.09375 -11810.741211
          -11489.364258 -12101.924805 -12113.694336 -11188.852539 -10890.297852 -11806.273438
          -11483.855469 -12250.500977 -12264.951172 -12120.886719 -12299.163086 -12326.268555
          -11798.053711 -12344.572266 -11185.75293 -12123.56543 -10887.408203 -12364.174805
          -11480.916992 -12386.676758 -11788.015625 -12120.886719 -12408.311523 -11177.453125
          -11479.183594 -12425.720703 -12113.694336 -11778.384766 -12437.68457 -12495.302734
          -12513.887695 -12558.970703 -12597.003906 -12101.924805 -11472.407227 -11173.170898
          -12624.820313 -11771.580078 -12441.958984 -12654.154297 -12687.297852 -12087.09375
          -12437.68457 -12719.361328 -11459.759766 -11766.053711 -12425.720703 -12745.769531
          -12071.982422 -12764.085938 -12726.066406 -12749.53418 -11754.300781 -12807.558594
          -12408.311523 -11453.716797 -12858.900391 -12059.706055 -12898.969727 -12770.266602
          -12941.852539 -12386.676758 -12990.583984 -12764.085938 -11736.073242 -12048.758789
          -13037.893555 -12364.174805 -12745.769531 -13076.842773 -11727.813477 -13102.072266
          -12030.345703 -12940.214844 -12719.361328 -12969.330078 -13042.362305 -12344.572266
          -13109.737305 -13111.150391 -13166.105469 -13228.144531 -12687.297852 -12005.020508
          -13298.205078 -13102.072266 -12326.268555 -13366.230469 -12654.154297 -13076.842773
          -13421.424805 -11993.990234 -12299.163086 -13455.018555 -13037.893555 -13134.990234
          -12624.820313 -13170.464844 -13260.365234 -13346.832031 -13468.663086 -13424.617188
          -12990.583984 -13511.81543 -12264.951172 -13455.018555 -12597.003906 -13609.041016
          -13705.460938 -12941.852539 -13421.424805 -12250.500977 -13784.107422 -12558.970703
          -13832.290039 -13366.230469 -12898.969727 -13307.466797 -13349.726563 -13457.361328
          -13565.037109 -13852.123047 -13668.146484 -12513.887695 -13298.205078 -13785.34375
          -12858.900391 -13832.290039 -13917.681641 -13228.144531 -14055.892578 -13784.107422
          -12495.302734 -12807.558594 -14174.37793 -13705.460938 -13166.105469 -14251.374023
          -13454.557617 -13503.24707 -13626.745117 -14279.174805 -13754.398438 -12749.53418
          -13884.233398 -13609.041016 -13109.737305 -14037.709961 -14251.374023 -14219.195313
          -13511.81543 -12726.066406 -14420.285156 -14174.37793 -13042.362305 -14608.936523
          -13424.617188 -14055.892578 -14739.431641 -13573.1875 -13626.509766 -12969.330078
          -13759.458008 -14777.816406 -13902.888672 -13917.681641 -14062.101563 -13346.832031
          -14262.248047 -14739.431641 -14510.21875 -12940.214844 -13785.34375 -14797.867188
          -13260.365234 -14608.936523 -15102.155273 -13668.146484 -14420.285156 -15325.484375
          -13170.464844 -13660.921875 -13715.654297 -13849.621094 -15375.553711 -14219.195313
          -14004.544922 -13565.037109 -14191.789063 -14439.236328 -15325.484375 -13134.990234
          -14763.160156 -14037.709961 -13457.361328 -15171.231445 -15102.155273 -15658.665039
          -13884.233398 -14797.867188 -16067.368164 -13349.726563 -13717.260742 -13772.358398
          -16183.523438 -14510.21875 -13897.889648 -13754.398438 -14057.318359 -14265.375
          -16067.368164 -13307.466797 -14562.973633 -14262.248047 -14990.832031 -13626.745117
          -15658.665039 -15537.644531 -16242.694336 -14062.101563 -15171.231445 -13503.24707
          -17043.003906 -13902.888672 -13741.499023 -14763.160156 -13795.40332 -17387.042969
          -13913.824219 -14081.80957 -14313.847656 -13454.557617 -17043.003906 -14635.728516
          -14439.236328 -13759.458008 -15073.00293 -16242.694336 -15707.93457 -14191.789063
          -16789.25 -15537.644531 -13626.509766 -18138.259766 -14004.544922 -14990.832031
          -18686.548828 -13573.1875 -18138.259766 -14562.973633 -13849.621094 -16789.25
          -14265.375 -13715.654297 -15707.93457 -14057.318359 -15073.00293 -13660.921875
          -13897.889648 -14635.728516 -14313.847656 -13772.358398 -14081.80957 -13717.260742
          -13913.824219 -13795.40332 -13741.499023
        </DataArray>
        <DataArray type="Float32" Name="VELOCITY" NumberOfComponents="3" ComponentName0="X-VELOCITY" ComponentName1="Y-VELOCITY" ComponentName2="Z-VELOCITY" format="ascii" RangeMin="0" RangeMax="90.574821472">
          0 0 0 0 0 0
          21.118284225 0.02077806741 0 20.977443695 0.086226604879 0
          24.131654739 0.16572678089 0 0 0 0
          20.787179947 0.13124838471 0 24.237407684 0.16343101859 0
          24.377319336 0.18059873581 0 40.680976868 0.087065443397 0
          0 0 0 20.559110641 0.16058063507 0
          40.687068939 0.11253169179 0 40.652687073 0.12788419425 0
          24.553466797 0.19696509838 0 47.880561829 0.12436843663 0
          0 0 0 20.302703857 0.17901712656 0
          47.898723602 0.13542485237 0 40.595809937 0.14188078046 0
          24.752979279 0.21017172933 0 47.929786682 0.1494743675 0
          40.528137207 0.15448001027 0 56.988384247 0.097491495311 0
          0 0 0 47.971370697 0.16163656116 0
          57.005161285 0.10573551804 0 20.027666092 0.19039922953 0
          24.965206146 0.22024986148 0 57.018642426 0.1146941632 0
          48.0207901 0.17222513258 0 40.455097198 0.16540408134 0
          57.030189514 0.1234780699 0 0 0 0
          62.305969238 0.085465081036 0 62.328575134 0.090518981218 0
          19.741075516 0.1972014308 0 62.354930878 0.09791239351 0
          25.182979584 0.22765086591 0 57.040935516 0.13164824247 0
          48.075775146 0.18118844926 0 40.379638672 0.1745262146 0
          62.384994507 0.10515406728 0 0 0 0
          63.946453094 0.060376424342 0 57.051559448 0.13894315064 0
          19.447938919 0.20083026588 0 63.972167969 0.063009642065 0
          62.41809082 0.11179036647 0 48.134429932 0.18845747411 0
          25.401586533 0.23274432123 0 63.999664307 0.067236110568 0
          40.303653717 0.1818433702 0 64.029220581 0.07184997946 0
          62.453689575 0.11762855202 0 57.062404633 0.14517776668 0
          67.811698914 0.037110090256 0 0 0 0
          64.060577393 0.0762828812 0 19.15196228 0.20206826925 0
          67.832420349 0.039379615337 0 48.195278168 0.19401459396 0
          25.617816925 0.2357750684 0 67.85395813 0.04213764891 0
          62.491333008 0.12255467474 0 67.876983643 0.045089311898 0
          40.228477478 0.18740126491 0 57.073616028 0.15023723245 0
          64.09349823 0.080293111503 0 67.901618958 0.047922376543 0
          48.257190704 0.19788426161 0 79.893669128 0.018432887271 0
          0 0 0 18.85607338 0.20136269927 0
          79.912185669 0.019754882902 0 64.127731323 0.083751365542 0
          25.829370499 0.23690095544 0 62.530570984 0.12649710476 0
          79.93196106 0.021229667589 0 67.927764893 0.050490316004 0
          57.08524704 0.15406371653 0 40.15511322 0.19125343859 0
          79.953102112 0.022690627724 0 48.319290161 0.20011222363 0
          79.975624084 0.024066545069 0 64.163063049 0.086577571929 0
          88.464920044 8.9632077802e-015 0 67.955245972 0.052708689123 0
          0 0 0 62.570972443 0.12941583991 0
          18.56271553 0.1989890039 0 88.484268188 2.7535221688e-014 0
          26.034498215 0.23623225093 0 88.505355835 4.221204278e-014 0
          57.097293854 0.15663708746 0 79.999420166 0.025313412771 0
          40.084320068 0.19344951212 0 88.528083801 6.1317616295e-014 0
          67.983856201 0.054518792778 0 64.199241638 0.088718913496 0
          88.552307129 8.3855089485e-014 0 48.380867004 0.20075386763 0
          62.61214447 0.13129386306 0 80.024360657 0.026393732056 0
          0 0 0 79.893669128 -0.018432887271 0
          18.274011612 0.19513916969 0 79.912185669 -0.019754882902 0
          26.231840134 0.23385949433 0 57.109722137 0.15796078742 0
          79.93196106 -0.021229667589 0 88.577896118 1.1883023862e-013 0
          68.01335907 0.055879410356 0 79.953102112 -0.022690627724 0
          64.236022949 0.090145625174 0 40.016666412 0.19403719902 0
          80.050254822 0.027274448425 0 88.604682922 1.5319937972e-013 0
          62.653697968 0.13213440776 0 79.975624084 -0.024066545069 0
          48.4413414 0.19987112284 0 67.811698914 -0.037110090256 0
          0 0 0 67.832420349 -0.039379615337 0
          68.043510437 0.05677549541 0 17.991861343 0.18996798992 0
          80.076889038 0.027934402227 0 57.1224823 0.15805570781 0
          79.999420166 -0.025313412771 0 67.85395813 -0.04213764891 0
          26.420310974 0.22987087071 0 64.273155212 0.0908568874 0
          88.632469177 1.9576450649e-013 0 67.876983643 -0.045089311898 0
          39.952583313 0.19306814671 0 62.695285797 0.13196265697 0
          80.024360657 -0.026393732056 0 67.901618958 -0.047922376543 0
          48.500217438 0.19753350317 0 80.104042053 0.02837413922 0
          68.074050903 0.057225514203 0 88.66104126 2.2185606217e-013 0
          63.946453094 -0.060376424342 0 0 0 0
          67.927764893 -0.050490316004 0 57.135490417 0.15695895255 0
          64.31035614 0.090881593525 0 63.972167969 -0.063009642065 0
          17.717964172 0.18361648917 0 80.050254822 -0.027274448425 0
          26.599063873 0.2243617624 0 63.999664307 -0.067236110568 0
          64.029220581 -0.07184997946 0 39.892368317 0.19060324132 0
          67.955245972 -0.052708689123 0 62.736545563 0.13082385063 0
          88.690170288 2.3520166934e-013 0 80.131484985 0.0286127422 0
          68.104705811 0.05726602301 0 48.557071686 0.1938200742 0
          80.076889038 -0.027934402227 0 64.060577393 -0.0762828812 0
          64.347343445 0.09025965631 0 67.983856201 -0.054518792778 0
          57.148662567 0.15472204983 0 64.09349823 -0.080293111503 0
          62.305969238 -0.085465081036 0 0 0 0
          17.453845978 0.17622283101 0 62.328575134 -0.090518981218 0
          88.719650269 2.3825098795e-013 0 62.354930878 -0.09791239351 0
          26.767463684 0.21743905544 0 80.104042053 -0.02837413922 0
          80.1590271 0.028664328158 0 62.384994507 -0.10515406728 0
          64.127731323 -0.083751365542 0 39.836215973 0.18671579659 0
          62.7771492 0.12877105176 0 68.01335907 -0.055879410356 0
          68.135231018 0.056913383305 0 62.41809082 -0.11179036647 0
          48.611560822 0.18882009387 0 64.383857727 0.089010939002 0
          64.163063049 -0.086577571929 0 80.131484985 -0.0286127422 0
          57.161884308 0.15140600502 0 62.453689575 -0.11762855202 0
          88.749298096 2.2845627842e-013 0 68.043510437 -0.05677549541 0
          56.988384247 -0.097491495311 0 0 0 0
          80.186477661 0.028511879966 0 17.20085144 0.1679263413 0
          57.005161285 -0.10573551804 0 26.925058365 0.20922209322 0
          57.018642426 -0.1146941632 0 62.491333008 -0.12255467474 0
          62.816791534 0.12584921718 0 64.199241638 -0.088718913496 0
          68.165435791 0.056138198823 0 57.030189514 -0.1234780699 0
          39.784217834 0.18149255216 0 57.040935516 -0.13164824247 0
          48.663383484 0.18263216317 0 80.1590271 -0.028664328158 0
          68.074050903 -0.057225514203 0 88.778892517 2.1163341804e-013 0
          64.419685364 0.087124310434 0 62.530570984 -0.12649710476 0
          64.236022949 -0.090145625174 0 57.175045013 0.1470760107 0
          57.051559448 -0.13894315064 0 80.213653564 0.028113603592 0
          47.880561829 -0.12436843663 0 0 0 0
          47.898723602 -0.13542485237 0 16.960134506 0.15886774659 0
          47.929786682 -0.1494743675 0 62.570972443 -0.12941583991 0
          68.195144653 0.054896783084 0 27.071580887 0.1998411864 0
          62.855228424 0.1220933497 0 57.062404633 -0.14517776668 0
          68.104705811 -0.05726602301 0 47.971370697 -0.16163656116 0
          39.73639679 0.17503294349 0 80.186477661 -0.028511879966 0
          64.273155212 -0.0908568874 0 88.808189392 1.7744783236e-013 0
          48.71231842 0.17536270618 0 48.0207901 -0.17222513258 0
          64.454650879 0.084594167769 0 57.073616028 -0.15023723245 0
          62.61214447 -0.13129386306 0 80.240333557 0.027455408126 0
          57.188041687 0.14180131257 0 48.075775146 -0.18118844926 0
          68.135231018 -0.056913383305 0 68.224151611 0.053213365376 0
          0 0 0 57.08524704 -0.15406371653 0
          40.680976868 -0.087065443397 0 80.213653564 -0.028113603592 0
          64.31035614 -0.090881593525 0 40.687068939 -0.11253169179 0
          16.732662201 0.14918732643 0 48.134429932 -0.18845747411 0
          62.892261505 0.11755010486 0 40.652687073 -0.12788419425 0
          27.206924438 0.18943464756 0 62.653697968 -0.13213440776 0
          88.836891174 1.4583438081e-013 0 39.692695618 0.16744692624 0
          40.595809937 -0.14188078046 0 48.195278168 -0.19401459396 0
          40.528137207 -0.15448001027 0 48.75818634 0.16712427139 0
          64.488548279 0.081482946873 0 57.097293854 -0.15663708746 0
          80.266281128 0.026605335996 0 64.347343445 -0.09025965631 0
          68.165435791 -0.056138198823 0 40.455097198 -0.16540408134 0
          57.200775146 0.13566061854 0 62.695285797 -0.13196265697 0
          80.240333557 -0.027455408126 0 68.252197266 0.051228024065 0
          48.257190704 -0.19788426161 0 0 0 0
          24.131654739 -0.16572678089 0 40.379638672 -0.1745262146 0
          16.519195557 0.13902172446 0 62.927684784 0.11230525374 0
          57.109722137 -0.15796078742 0 24.237407684 -0.16343101859 0
          88.8647995 9.5937953491e-014 0 24.377319336 -0.18059873581 0
          27.331138611 0.17814418674 0 39.653003693 0.15885101259 0
          24.553466797 -0.19696509838 0 48.319290161 -0.20011222363 0
          80.291282654 0.025689741597 0 64.383857727 -0.089010939002 0
          64.521110535 0.077936075628 0 40.303653717 -0.1818433702 0
          68.195144653 -0.054896783084 0 24.752979279 -0.21017172933 0
          62.736545563 -0.13082385063 0 48.800880432 0.15803228319 0
          80.266281128 -0.026605335996 0 57.1224823 -0.15805570781 0
          57.21313858 0.12874615192 0 24.965206146 -0.22024986148 0
          68.278991699 0.049113173038 0 40.228477478 -0.18740126491 0
          48.380867004 -0.20075386763 0 88.891838074 4.7914617559e-014 0
          25.182979584 -0.22765086591 0 62.961261749 0.10648140311 0
          21.118284225 -0.02077806741 0 0 0 0
          20.977443695 -0.086226604879 0 16.320297241 0.12850007415 0
          64.419685364 -0.087124310434 0 27.444404602 0.16610936821 0
          20.787179947 -0.13124838471 0 62.7771492 -0.12877105176 0
          57.135490417 -0.15695895255 0 68.224151611 -0.053213365376 0
          40.15511322 -0.19125343859 0 20.559110641 -0.16058063507 0
          39.617164612 0.14936235547 0 80.31526947 0.024766454473 0
          25.401586533 -0.23274432123 0 64.552017212 0.074092999101 0
          80.291282654 -0.025689741597 0 20.302703857 -0.17901712656 0
          48.4413414 -0.19987112284 0 48.840335846 0.14819991589 0
          57.225002289 0.12115927041 0 20.027666092 -0.19039922953 0
          68.304382324 0.046882145107 0 25.617816925 -0.2357750684 0
          40.084320068 -0.19344951212 0 88.918014526 1.3464676287e-014 0
          62.816791534 -0.12584921718 0 64.454650879 -0.084594167769 0
          57.148662567 -0.15472204983 0 62.992744446 0.10018919408 0
          19.741075516 -0.1972014308 0 68.252197266 -0.051228024065 0
          0 0 0 48.500217438 -0.19753350317 0
          0 0 0 0 0 0
          16.136327744 0.1177399382 0 0 0 0
          27.547031403 0.15346138179 0 25.829370499 -0.23690095544 0
          80.338256836 0.0237045791 0 0 0 0
          39.584983826 0.13909196854 0 19.447938919 -0.20083026588 0
          80.31526947 -0.024766454473 0 64.581069946 0.069945953786 0
          40.016666412 -0.19403719902 0 0 0 0
          48.876529694 0.13773366809 0 62.855228424 -0.1220933497 0
          57.161884308 -0.15140600502 0 26.034498215 -0.23623225093 0
          88.943191528 -2.2585171309e-014 0 19.15196228 -0.20206826925 0
          57.236221313 0.112997666 0 68.328422546 0.044289398938 0
          48.557071686 -0.1938200742 0 64.488548279 -0.081482946873 0
          0 0 0 68.278991699 -0.049113173038 0
          39.952583313 -0.19306814671 0 0 0 0
          63.021980286 0.093464314938 0 0 0 0
          15.967449188 0.10684348643 0 18.85607338 -0.20136269927 0
          80.360176086 0.022255213931 0 27.639427185 0.14031679928 0
          26.231840134 -0.23385949433 0 80.338256836 -0.0237045791 0
          64.608337402 0.065307021141 0 0 0 0
          57.175045013 -0.1470760107 0 39.556240082 0.12813936174 0
          62.892261505 -0.11755010486 0 48.611560822 -0.18882009387 0
          48.909473419 0.12673290074 0 64.521110535 -0.077936075628 0
          39.892368317 -0.19060324132 0 88.966941833 -4.2790207141e-014 0
          18.56271553 -0.1989890039 0 0 0 0
          68.351219177 0.041037485003 0 57.246673584 0.10433869064 0
          26.420310974 -0.22987087071 0 68.304382324 -0.046882145107 0
          63.048995972 0.086255967617 0 80.380706787 0.020354425535 0
          0 0 0 57.188041687 -0.14180131257 0
          48.663383484 -0.18263216317 0 80.360176086 -0.022255213931 0
          18.274011612 -0.19513916969 0 0 0 0
          15.813642502 0.095894016325 0 39.836215973 -0.18671579659 0