<?xml version="1.0"?>
<VTKFile type="PolyData" version="0.1" byte_order="LittleEndian" compressor="vtkZLibDataCompressor">
  <PolyData>
    <Piece NumberOfPoints="1071" NumberOfVerts="0" NumberOfLines="0" NumberOfStrips="0" NumberOfPolys="2000">
      <PointData>
        <DataArray type="Float32" Name="PRESSURE" format="ascii" RangeMin="0" RangeMax="27967.326172">
          0 443.97009277 0 444.47189331 0 872.7177124
          871.84838867 438.18432617 867.17718506 0 1298.0253906 1296.8891602
          433.05056763 862.42687988 1293.4681396 0 1722.5662842 1721.5631104
          430.29711914 1289.7836914 1718.9918213 859.2522583 1716.1816406 0
          2147.005127 1286.9771729 428.92623901 2146.2038574 2144.2475586 857.33843994
          1713.8712158 2142.0895996 1285.0432129 2571.4997559 0 428.20779419
          2570.8789063 856.18273926 2569.3840332 1712.1306152 2140.2307129 2567.7192383
          1283.7424316 2996.0754395 0 2138.7456055 2995.5998535 427.80258179
          1710.866333 2566.2412109 2994.4594727 855.47454834 2993.1784668 1282.8845215
          2137.6069336 2565.0124512 0 3420.7248535 1709.9829102 3420.3642578
          427.56970215 2992.0175781 3419.5026855 855.05053711 2564.0341797 1282.3468018
          3418.5288086 2991.0251465 2136.776123 1709.4064941 3417.6328125 0
          3845.432373 3845.1640625 427.44818115 2563.2976074 3844.5280762 2990.2138672
          854.82312012 2136.2165527 3416.8520508 3843.8066406 1282.0495605 3843.1359863
          1709.0793457 2989.5891113 0 2562.7890625 4270.1806641 3416.2019043
          4269.9887695 427.41033936 4269.5415039 854.74993896 3842.543457 2135.8920898
          4269.034668 1281.9526367 2989.1499023 3415.6928711 1708.9715576 4268.5595703
          3842.043457 2562.4892578 4694.9536133 0 4694.8271484 427.44818115
          4694.5444336 4268.1362305 854.82312012 2135.7841797 3415.3303223 1282.0495605
          3841.6479492 4694.2265625 2988.8874512 2562.388916 4267.7763672 1709.0793457
          4693.9272461 0 5119.7338867 427.56970215 3841.3637695 5119.6660156
          3415.1115723 4693.6591797 2135.8920898 855.05053711 5119.5332031 4267.4892578
          2988.7990723 1282.3468018 5119.3901367 4693.4306641 2562.4892578 1709.4064941
          5119.2553711 3841.1906738 4267.2827148 3415.0373535 0 5544.5039063
          2136.2165527 5119.1352539 4693.2495117 427.80258179 5544.4921875 2988.8874512
          5544.5039063 855.47454834 1282.8845215 5544.5307617 2562.7890625 5119.034668
          3841.1315918 4267.1557617 4693.1186523 5544.5576172 3415.1115723 1709.9829102
          5118.956543 2989.1499023 5544.5839844 2136.776123 0 5969.2460938
          5969.2895508 428.20779419 4267.1123047 856.18273926 5969.4487305 3841.1906738
          4693.0380859 1283.7424316 2563.2976074 5969.6499023 5544.6118164 3415.3303223
          5118.9023438 1710.866333 5969.8432617 5544.6386719 2989.5891113 4267.1557617
          5970.0224609 2137.6069336 4693.0097656 3841.3637695 0 6393.9394531
          5118.8681641 6394.0415039 428.92623901 6394.3583984 857.33843994 2564.0341797
          5970.1845703 3415.6928711 5544.6625977 1285.0432129 6394.7485352 1712.1306152
          6395.1225586 4693.0380859 4267.2827148 5118.8549805 5970.3227539 2990.2138672
          3841.6479492 6395.4677734 2138.7456055 5544.6762695 0 6818.5625
          430.29711914 6818.7290039 859.2522583 3416.2019043 5970.4291992 6819.2231445
          6395.7773438 2565.0124512 4693.1186523 1286.9771729 6819.8251953 5118.8681641
          4267.4892578 5544.6787109 6820.4038086 1713.8712158 6396.0366211 2991.0251465
          3842.043457 5970.4931641 6820.9375 2140.2307129 5118.9023438 6396.2338867
          7243.0893555 3416.8520508 0 5544.6762695 4693.2495117 433.05056763
          7243.3295898 2566.2412109 6821.4135742 862.42687988 7244.0288086 4267.7763672
          5970.5126953 7244.8793945 1289.7836914 2992.0175781 1716.1816406 7245.6967773
          6821.8115234 3842.543457 6396.3530273 5118.956543 5544.6625977 2142.0895996
          7246.4501953 4693.4306641 5970.4931641 6822.1118164 3417.6328125 7667.4902344
          0 2567.7192383 7667.8173828 7247.121582 4268.1362305 438.18432617
          6396.3920898 867.17718506 7668.7607422 7669.9082031 1293.4681396 3843.1359863
          6822.2958984 5544.6386719 7247.6821289 2993.1784668 5970.4291992 1718.9918213
          5119.034668 7671.0117188 6396.3530273 4693.6591797 7672.0288086 2144.2475586
          7248.1049805 3418.5288086 4268.5595703 6822.355957 2569.3840332 7672.9335938
          0 8091.7299805 444.47189331 8092.1616211 5970.3227539 8093.4008789
          871.84838867 5544.6118164 5119.1352539 6396.2338867 3843.8066406 1296.8891602
          8094.9091797 7248.3647461 2994.4594727 7673.6889648 6822.2958984 1721.5631104
          4693.9272461 8096.3613281 8097.6982422 2146.2038574 7674.2587891 3419.5026855
          4269.034668 7248.4492188 5970.1845703 6396.0366211 5544.5839844 8098.887207
          2570.8789063 6822.1118164 8515.7666016 5119.2553711 0 443.97009277
          8516.3251953 872.7177124 8517.9267578 3844.5280762 7674.6088867 1298.0253906
          8519.8798828 2995.5998535 7248.3647461 8099.8793945 4694.2265625 1722.5662842
          8521.7607422 6395.7773438 5970.0224609 4269.5415039 7674.7226563 3420.3642578
          8523.4912109 8100.6274414 5544.5576172 6821.8115234 2147.005127 7248.1049805
          5119.3901367 2571.4997559 8525.0292969 8939.5488281 8940.2636719 3845.1640625
          8101.0854492 8942.3125 4694.5444336 7674.6088867 8526.3105469 2996.0754395
          6395.4677734 8944.8164063 6821.4135742 5969.8432617 8947.2294922 7247.6821289
          5544.5307617 8101.2353516 4269.9887695 3420.7248535 8527.2744141 8949.4472656
          5119.5332031 7674.2587891 8951.4160156 8527.8632813 3845.432373 6820.9375
          6395.1225586 8101.0854492 4694.8271484 9363.0175781 9363.9248047 5969.6499023
          7247.121582 9366.5273438 8953.0546875 7673.6889648 9369.7167969 5544.5039063
          9372.7919922 8528.0595703 4270.1806641 5119.6660156 8954.2841797 8100.6274414
          9375.6162109 6820.4038086 6394.7485352 7246.4501953 9378.1201172 7672.9335938
          5969.4487305 8527.8632813 4694.9536133 8955.0371094 9786.0986328 5544.4921875
          8099.8793945 9787.2431641 9790.5361328 9380.2021484 9794.5800781 8955.2890625
          5119.7338867 8527.2744141 9798.4804688 7245.6967773 6819.8251953 9381.7636719
          6394.3583984 7672.0288086 9802.0585938 8098.887207 5969.2895508 8955.0371094
          9805.2304688 9382.7236328 5544.5039063 8526.3105469 10208.705078 10210.144531
          9807.8671875 7244.8793945 10214.293945 7671.0117188 6819.2231445 9383.0439453
          10219.40332 8954.2841797 8097.6982422 6394.0415039 10224.334961 9809.8466797
          8525.0292969 5969.2460938 10228.854492 9382.7236328 8953.0546875 9811.0673828
          10232.858398 7244.0288086 7669.9082031 8096.3613281 6818.7290039 10236.186523
          10630.731445 6393.9394531 8523.4912109 10632.535156 9381.7636719 9811.46875
          10637.750977 10644.19043 8951.4160156 10238.689453 10650.408203 7668.7607422
          9811.0673828 10656.102539 8094.9091797 7243.3295898 9380.2021484 8521.7607422
          6818.5625 10240.230469 10661.141602 8949.4472656 9809.8466797 10665.329102
          11052.050781 10240.735352 11054.305664 9378.1201172 11060.847656 11068.946289
          8093.4008789 7667.8173828 10668.477539 8519.8798828 7243.0893555 11076.769531
          8947.2294922 10240.230469 9807.8671875 11083.926758 10670.405273 9375.6162109
          11090.254883 10238.689453 8092.1616211 8517.9267578 7667.4902344 11095.506836
          10671.043945 9805.2304688 11472.511719 8944.8164063 11475.326172 11483.513672
          11493.679688 11099.441406 9372.7919922 11503.504883 10236.186523 10670.405273
          11512.485352 9802.0585938 11101.844727 8516.3251953 8091.7299805 8942.3125
          11520.415039 10668.477539 10232.858398 9369.7167969 11102.657227 11526.985352
          11891.93457 11895.439453 9798.4804688 11905.668945 11531.892578 11918.408203
          10665.329102 11101.844727 11930.726563 8515.7666016 10228.854492 8940.2636719
          9366.5273438 11941.974609 11534.901367 9794.5800781 11099.441406 11951.895508
          10661.141602 11535.926758 10224.334961 11960.109375 8939.5488281 12310.103516
          12314.461914 11095.506836 12327.222656 9363.9248047 11966.242188 10656.102539
          11534.901367 12343.158203 9790.5361328 12358.577148 10219.40332 11970.032227
          12372.639648 11090.254883 11531.892578 12385.038086 10650.408203 11971.306641
          9363.0175781 9787.2431641 12395.305664 11526.985352 12726.765625 10214.293945
          11083.926758 12732.175781 12748.066406 11970.032227 12402.998047 12767.96875
          10644.19043 12787.235352 12407.760742 11520.415039 12804.793945 11966.242188
          9786.0986328 11076.769531 12820.269531 10210.144531 12409.330078 12833.094727
          10637.750977 11960.109375 11512.485352 13141.621094 12407.760742 13148.326172
          12842.727539 13168.082031 11068.946289 13192.897461 10208.705078 13216.9375
          11951.895508 12848.652344 11503.504883 12402.998047 13238.833008 10632.535156
          13258.12207 12850.602539 11060.847656 11941.974609 13274.102539 12395.305664
          11493.679688 12848.652344 13554.319336 13286.078125 13562.614258 10630.731445
          13587.136719 13618.03125 12385.038086 11054.305664 13647.985352 11930.726563
          13293.385742 12842.727539 13675.256836 11483.513672 13699.254883 13295.854492
          12372.639648 12833.094727 13719.09668 11918.408203 11052.050781 13293.385742
          13733.886719 13964.451172 11475.326172 13974.696289 14005.085938 12820.269531
          12358.577148 14043.487305 13286.078125 13742.918945 14080.759766 11905.668945
          14114.671875 13746.063477 12804.793945 14144.47168 11472.511719 13274.102539
          12343.158203 14169.0625 11895.439453 13742.918945 14187.336914 12787.235352
          14371.541016 14384.171875 13258.12207 14421.768555 12327.222656 14469.416992
          13733.886719 14198.628906 14515.709961 14557.796875 11891.93457 13238.833008
          14202.560547 12767.96875 14594.762695 13719.09668 12314.461914 14625.271484
          14198.628906 13216.9375 13699.254883 14648.018555 12748.066406 14775.038086
          14790.583008 14837.005859 14187.336914 14896.010742 14662.210938 14953.383789
          12310.103516 13675.256836 13192.897461 15005.53125 14666.989258 14169.0625
          12732.175781 15051.379883 15089.318359 14662.210938 13647.985352 13168.082031
          14144.47168 15117.771484 15174.308594 15193.40332 15250.613281 12726.765625
          14648.018555 15323.524414 15135.43457 15394.499023 13618.03125 14114.671875
          15459.066406 13148.326172 14625.271484 15141.198242 15515.931641 15563.083008
          14080.759766 15135.43457 13587.136719 14594.762695 15598.492188 13141.621094
          15568.631836 15117.771484 15592.043945 15662.40918 15620.146484 15752.321289
          14043.487305 14557.796875 15840.016602 13562.614258 15919.941406 15089.318359
          15627.285156 15990.37793 14515.709961 14005.085938 15620.146484 16048.71582
          15051.379883 13554.319336 16092.313477 15598.492188 15957.186523 14469.416992
          15985.841797 16072.210938 16118.833984 15005.53125 13974.696289 16182.870117
          16291.091797 15563.083008 16127.994141 16389.912109 16476.931641 14421.768555
          14953.383789 13964.451172 16118.833984 15515.931641 16548.822266 16602.316406
          16092.313477 14896.010742 14384.171875 15459.066406 16339.041016 16374.042969
          16635.376953 16479.800781 16615.648438 16748.880859 16048.71582 16647.203125
          16870.740234 14837.005859 15394.499023 14371.541016 16978.117188 16635.376953
          15990.37793 17066.90625 17133.179688 15323.524414 14790.583008 16602.316406
          15919.941406 16713.121094 16755.767578 17175.054688 16884.875 17051.050781
          16548.822266 17214.46875 15250.613281 17189.941406 14775.038086 17364.392578
          15840.016602 17497.238281 16476.931641 17175.054688 17607.765625 15193.40332
          15752.321289 17690.876953 17133.179688 16389.912109 17743.533203 17078.183594
          17129.998047 17287.046875 17489.443359 17066.90625 15662.40918 15174.308594
          17689.25 16291.091797 17761.802734 17873.818359 18038.953125 16978.117188
          17743.533203 18177.294922 15592.043945 16182.870117 17690.876953 18281.59375
          16870.740234 18346.292969 17432.789063 17495.566406 16072.210938 17685.875
          17607.765625 15568.631836 17931.384766 16748.880859 18175.412109 18368.728516
          18403.283203 17497.238281 18608.847656 18346.292969 15985.841797 16615.648438
          18781.751953 17364.392578 18281.59375 18911.597656 15957.186523 18990.349609
          16479.800781 17775.232422 18177.294922 17851.097656 18080.730469 17214.46875
          18377.367188 19018.394531 18675.214844 18956.634766 18038.953125 16374.042969
          19211.816406 18990.349609 17051.050781 19427.728516 17873.818359 18911.597656
          19589.636719 16339.041016 16884.875 19687.845703 18781.751953 18103.373047
          17689.25 18194.722656 18470.171875 18826.417969 19722.978516 19188.429688
          18608.847656 19534.742188 16755.767578 19687.845703 17489.443359 19851.869141
          20123.986328 18403.283203 19589.636719 16713.121094 20330.130859 17287.046875
          20457.574219 19427.728516 18175.412109 18414.289063 18523.589844 18850.810547
          19274.121094 20500.609375 19710.882813 17129.998047 19211.816406 20137.019531
          17931.384766 20457.574219 20535.457031 18956.634766 20883.580078 20330.130859
          17078.183594 17685.875 21152.892578 20123.986328 18675.214844 21320.591797
          18703.837891 18833.298828 19216.367188 21373.089844 19712.644531 17495.566406
          20237.896484 19851.869141 18377.367188 20767.130859 21320.591797 21275.105469
          19534.742188 17432.789063 21725.460938 21152.892578 18080.730469 22081.371094
          19188.429688 20883.580078 22297.839844 18966.140625 19117.587891 17851.097656
          19557.523438 22364.128906 20132.464844 20535.457031 20766.052734 18826.417969
          21431.154297 22297.839844 22086.460938 17775.232422 20137.019531 22673.550781
          18470.171875 22081.371094 23143.216797 19710.882813 21725.460938 23412.921875
          18194.722656 19192.859375 19368.417969 19860.833984 23488.886719 21275.105469
          20515.935547 19274.121094 21275.416016 22114.066406 23412.921875 18103.373047
          22967.607422 20767.130859 18850.810547 23743.839844 23143.216797 24369.158203
          20237.896484 22673.550781 24719.761719 18523.589844 19369.748047 19574.697266
          24824.767578 22086.460938 20092.714844 19712.644531 20813.025391 21712.054688
          24719.761719 18414.289063 22796.214844 21431.154297 23973.244141 19216.367188
          24369.158203 24999.589844 25772.375 20766.052734 23743.839844 18833.298828
          26217.560547 20132.464844 19470.380859 22967.607422 19682.917969 26362.34375
          20199.548828 20970.021484 22005.958984 18703.837891 26217.560547 23374.429688
          22114.066406 19557.523438 25106.474609 25772.375 26468.619141 21275.416016
          27315.056641 24999.589844 19117.587891 27816.326172 20515.935547 23973.244141
          27967.326172 18966.140625 27816.326172 22796.214844 19860.833984 27315.056641
          21712.054688 19368.417969 26468.619141 20813.025391 25106.474609 19192.859375
          20092.714844 23374.429688 22005.958984 19574.697266 20970.021484 19369.748047
          20199.548828 19682.917969 19470.380859
        </DataArray>
        <DataArray type="Float32" Name="VELOCITY" NumberOfComponents="3" ComponentName0="X-VELOCITY" ComponentName1="Y-VELOCITY" ComponentName2="Z-VELOCITY" format="ascii" RangeMin="0" RangeMax="84.22543335">
          0 0 0 0 0 0
          9.1823892593 0.0071296542883 0 9.4643955231 0.0043838243 0
          22.982242584 -0.010807905346 0 0 0 0
          9.4970493317 0.0041313753463 0 22.95492363 -0.0014416079503 0
          22.94896698 -0.0021894124802 0 34.137126923 -0.0026776529849 0
          0 0 0 9.4952230453 0.001491890871 0
          34.124382019 -0.0058024227619 0 34.118453979 -0.0064455471002 0
          22.94685936 -0.0035303793848 0 43.896572113 -0.0033504131716 0
          0 0 0 9.4907369614 -0.00022123678355 0
          43.890399933 -0.0054418337531 0 34.115642548 -0.0062474668957 0
          22.945783615 -0.0039129732177 0 43.886768341 -0.0059844269417 0
          34.113960266 -0.0056455605663 0 52.099945068 -0.0028286483139 0
          0 0 0 43.88482666 -0.0057031745091 0
          52.097213745 -0.0041119181551 0 9.4870672226 -0.00095093657728 0
          22.94521904 -0.003680361202 0 52.094985962 -0.0046180179343 0
          43.883625031 -0.005099343136 0 34.11277771 -0.0048759155907 0
          52.093395233 -0.0045187277719 0 0 0 0
          58.032722473 -0.0021873097867 0 58.031166077 -0.0028802412562 0
          9.4842185974 -0.0011317422614 0 58.02961731 -0.0032732354011 0
          22.944934845 -0.0031823406462 0 52.092224121 -0.0041210604832 0
          43.882759094 -0.0043920432217 0 34.111888885 -0.0040640672669 0
          58.028259277 -0.0032991729677 0 0 0 0
          59.620254517 -0.0014855655609 0 52.091316223 -0.0036012523342 0
          9.4819850922 -0.0010519882198 0 59.619155884 -0.0018481905572 0
          58.027137756 -0.0030873077922 0 43.882099152 -0.0036661943886 0
          22.944805145 -0.0025988228153 0 59.617996216 -0.0021207383834 0
          34.111209869 -0.0032691736706 0 59.616863251 -0.0021996085998 0
          58.026222229 -0.0027520034928 0 52.090595245 -0.0030393085908 0
          63.321407318 -0.00082356412895 0 0 0 0
          59.615837097 -0.0021167031955 0 9.480219841 -0.00085968704661 0
          63.320716858 -0.0010595672065 0 43.881587982 -0.0029569023754 0
          22.944759369 -0.0020067673177 0 63.319984436 -0.0012471077498 0
          58.025482178 -0.0023588924669 0 63.319206238 -0.0013297395781 0
          34.110691071 -0.0025141187944 0 52.090023041 -0.0024718921632 0
          59.614959717 -0.0019331951626 0 63.318450928 -0.0013128067367 0
          43.881202698 -0.0022778112907 0 75.332351685 -0.00038410833804 0
          0 0 0 9.4788208008 -0.00062378490111 0
          75.331924438 -0.00051647983491 0 59.614227295 -0.001690636971 0
          22.944759369 -0.0014331778511 0 58.024902344 -0.0019411625108 0
          75.331382751 -0.00061986298533 0 63.317760468 -0.0012252054876 0
          52.089576721 -0.0019147521816 0 34.110294342 -0.001801952254 0
          75.330764771 -0.00066491606412 0 43.880916595 -0.0016301621217 0
          75.330108643 -0.0006594209699 0 59.613632202 -0.0014093874488 0
          83.959747314 -3.3677304923e-014 0 63.317146301 -0.0010859401664 0
          0 0 0 58.024452209 -0.0015128552914 0
          9.4777116776 -0.0003730119497 0 83.959388733 -2.5338480703e-014 0
          22.944782257 -0.00088136439444 0 83.958847046 -1.5308504383e-014 0
          52.089244843 -0.0013713786611 0 75.329475403 -0.00061554700369 0
          34.109996796 -0.0011244317284 0 83.958190918 1.5307140024e-015 0
          63.316619873 -0.000904659566 0 59.61315155 -0.0010995883495 0
          83.957504272 2.2161488817e-014 0 43.880718231 -0.0010069548152 0
          58.024112701 -0.0010792359244 0 75.328887939 -0.00053991255118 0
          0 0 0 75.332351685 0.00038410833804 0
          9.4768352509 -0.00011631361122 0 75.331924438 0.00051647983491 0
          22.944814682 -0.00034312429489 0 52.089008331 -0.00083839631407 0
          75.331382751 0.00061986298533 0 83.956832886 3.7664925974e-014 0
          63.316181183 -0.00069479929516 0 75.330764771 0.00066491606412 0
          59.612785339 -0.00077414064435 0 34.109779358 -0.00046663972898 0
          75.328384399 -0.00043960861512 0 83.956222534 4.9862932251e-014 0
          58.023872375 -0.00064484926406 0 75.330108643 0.0006594209699 0
          43.880592346 -0.00039579352597 0 63.321407318 0.00082356412895 0
          0 0 0 63.320716858 0.0010595672065 0
          63.315849304 -0.00048098285333 0 9.476149559 0.00014694819401 0
          75.327972412 -0.00032998065581 0 52.088855743 -0.0003093679843 0
          75.329475403 0.00061554700369 0 63.319984436 0.0012471077498 0
          22.944849014 0.00019558222266 0 59.612533569 -0.00045198778389 0
          83.955711365 5.0506741665e-014 0 63.319206238 0.0013297395781 0
          34.109622955 0.00019054664881 0 58.023735046 -0.00021447861218 0
          75.328887939 0.00053991255118 0 63.318450928 0.0013128067367 0
          43.880535126 0.00021932921663 0 75.327674866 -0.00023079673701 0
          63.315639496 -0.00028631126042 0 83.955307007 3.7115289683e-014 0
          59.620254517 0.0014855655609 0 0 0 0
          63.317760468 0.0012252054876 0 52.088790894 0.00022468474344 0
          59.612411499 -0.00014443065447 0 59.619155884 0.0018481905572 0
          9.4756269455 0.00042206567014 0 75.328384399 0.00043960861512 0
          22.944879532 0.00075205613393 0 59.617996216 0.0021207383834 0
          59.616863251 0.0021996085998 0 34.109527588 0.00086928874953 0
          63.317146301 0.0010859401664 0 58.023708344 0.00021503037715 0
          83.95500946 3.4388040104e-014 0 75.327476501 -0.00014826282859 0
          63.315551758 -0.00010544642282 0 43.88053894 0.00085749931168 0
          75.327972412 0.00032998065581 0 59.615837097 0.0021167031955 0
          59.612411499 0.00016491093265 0 63.316619873 0.000904659566 0
          52.088813782 0.00077807117486 0 59.614959717 0.0019331951626 0
          58.032722473 0.0021873097867 0 0 0 0
          9.4752483368 0.00071668328019 0 58.031166077 0.0028802412562 0
          83.954788208 3.1117005538e-014 0 58.02961731 0.0032732354011 0
          22.944910049 0.0013457936002 0 75.327674866 0.00023079673701 0
          75.32736969 -5.9878449974e-005 0 58.028259277 0.0032991729677 0
          59.614227295 0.001690636971 0 34.109481812 0.001594351721 0
          58.023792267 0.00066396559123 0 63.316181183 0.00069479929516 0
          63.315559387 0.00010591782484 0 58.027137756 0.0030873077922 0
          43.880607605 0.0015411049826 0 59.612510681 0.00052015163237 0
          59.613632202 0.0014093874488 0 75.327476501 0.00014826282859 0
          52.088928223 0.0013727738988 0 58.026222229 0.0027520034928 0
          83.954650879 2.0585878786e-014 0 63.315849304 0.00048098285333 0
          52.099945068 0.0028286483139 0 0 0 0
          75.327339172 7.2702699981e-005 0 9.4750041962 0.0010397633305 0
          52.097213745 0.0041119181551 0 22.944940567 0.0019981423393 0
          52.094985962 0.0046180179343 0 58.025482178 0.0023588924669 0
          58.023963928 0.0011659588199 0 59.61315155 0.0010995883495 0
          63.315635681 0.0003967458033 0 52.093395233 0.0045187277719 0
          34.109489441 0.0023929853924 0 52.092224121 0.0041210604832 0
          43.880744934 0.0022958067711 0 75.32736969 5.9878449974e-005 0
          63.315639496 0.00028631126042 0 83.95464325 1.6543968005e-014 0
          59.612670898 0.00095790397609 0 58.024902344 0.0019411625108 0
          59.612785339 0.00077414064435 0 52.089134216 0.002035912592 0
          52.091316223 0.0036012523342 0 75.327430725 0.00026029750006 0
          43.896572113 0.0033504131716 0 0 0 0
          43.890399933 0.0054418337531 0 9.4748935699 0.0014011653839 0
          43.886768341 0.0059844269417 0 58.024452209 0.0015128552914 0
          63.315795898 0.00075797300087 0 22.944972992 0.0027323525865 0
          58.024204254 0.0017473119078 0 52.090595245 0.0030393085908 0
          63.315551758 0.00010544642282 0 43.88482666 0.0057031745091 0
          34.109550476 0.0032950388268 0 75.327339172 -7.2702699981e-005 0
          59.612533569 0.00045198778389 0 83.954826355 1.113711191e-014 0
          43.880954742 0.0031499962788 0 43.883625031 0.005099343136 0
          59.612903595 0.0014619369758 0 52.090023041 0.0024718921632 0
          58.024112701 0.0010792359244 0 75.327697754 0.00045274954755 0
          52.089420319 0.0027930056676 0 43.882759094 0.0043920432217 0
          63.315559387 -0.00010591782484 0 63.316120148 0.0011013559997 0
          0 0 0 52.089576721 0.0019147521816 0
          34.137126923 0.0026776529849 0 75.327430725 -0.00026029750006 0
          59.612411499 0.00014443065447 0 34.124382019 0.0058024227619 0
          9.4749250412 0.001811551163 0 43.882099152 0.0036661943886 0
          58.024528503 0.0024071249645 0 34.118453979 0.0064455471002 0
          22.945016861 0.0035739620216 0 58.023872375 0.00064484926406 0
          83.955200195 -8.9613188967e-015 0 34.109672546 0.0043336139061 0
          34.115642548 0.0062474668957 0 43.881587982 0.0029569023754 0
          34.113960266 0.0056455605663 0 43.881244659 0.0041348598897 0
          59.613288879 0.0019650105387 0 52.089244843 0.0013713786611 0
          75.328170776 0.00057155330433 0 59.612411499 -0.00016491093265 0
          63.315635681 -0.0003967458033 0 34.11277771 0.0048759155907 0
          52.089801788 0.0036638565361 0 58.023735046 0.00021447861218 0
          75.327697754 -0.00045274954755 0 63.316692352 0.0013406635262 0
          43.881202698 0.0022778112907 0 0 0 0
          22.982242584 0.010807905346 0 34.111888885 0.0040640672669 0
          9.475112915 0.0022824478801 0 58.024993896 0.0031255299691 0
          52.089008331 0.00083839631407 0 22.95492363 0.0014416079503 0
          83.955688477 -1.7169518777e-014 0 22.94896698 0.0021894124802 0
          22.945079803 0.0045514432713 0 34.109867096 0.0055464673787 0
          22.94685936 0.0035303793848 0 43.880916595 0.0016301621217 0
          75.328796387 0.00060995004606 0 59.612510681 -0.00052015163237 0
          59.613933563 0.0024276827462 0 34.111209869 0.0032691736706 0
          63.315795898 -0.00075797300087 0 22.945783615 0.0039129732177 0
          58.023708344 -0.00021503037715 0 43.881629944 0.0052858232521 0
          75.328170776 -0.00057155330433 0 52.088855743 0.0003093679843 0
          52.090320587 0.0046669156291 0 22.94521904 0.003680361202 0
          63.317508698 0.0015321405372 0 34.110691071 0.0025141187944 0
          43.880718231 0.0010069548152 0 83.956176758 -4.8335623427e-014 0
          22.944934845 0.0031823406462 0 58.025691986 0.0039054723457 0
          9.1823892593 -0.0071296542883 0 0 0 0
          9.4643955231 -0.0043838243 0 9.4754838943 0.0028262801934 0
          59.612670898 -0.00095790397609 0 22.945173264 0.0056968606077 0
          9.4970493317 -0.0041313753463 0 58.023792267 -0.00066396559123 0
          52.088790894 -0.00022468474344 0 63.316120148 -0.0011013559997 0
          34.110294342 0.001801952254 0 9.4952230453 -0.001491890871 0
          34.110145569 0.0069775111042 0 75.329467773 0.00070385751314 0
          22.944805145 0.0025988228153 0 59.614860535 0.0029358472675 0
          75.328796387 -0.00060995004606 0 9.4907369614 0.00022123678355 0
          43.880592346 0.00039579352597 0 43.882137299 0.0066436151974 0
          52.091030121 0.0058295964263 0 9.4870672226 0.00095093657728 0
          63.318439484 0.0019133957103 0 22.944759369 0.0020067673177 0
          34.109996796 0.0011244317284 0 83.956718445 -4.4957066498e-014 0
          58.023963928 -0.0011659588199 0 59.612903595 -0.0014619369758 0
          52.088813782 -0.00077807117486 0 58.026649475 0.0048132580705 0
          9.4842185974 0.0011317422614 0 63.316692352 -0.0013406635262 0
          0 0 0 43.880535126 -0.00021932921663 0
          0 0 0 0 0 0
          9.4760770798 0.0034561862703 0 0 0 0
          22.945314407 0.0070461817086 0 22.944759369 0.0014331778511 0
          75.330207825 0.001046517631 0 0 0 0
          34.110530853 0.0086769871414 0 9.4819850922 0.0010519882198 0
          75.329467773 -0.00070385751314 0 59.615924835 0.003692858154 0
          34.109779358 0.00046663972898 0 0 0 0
          43.882793427 0.008252649568 0 58.024204254 -0.0017473119078 0
          52.088928223 -0.0013727738988 0 22.944782257 0.00088136439444 0
          83.957580566 -2.7285255489e-014 0 9.480219841 0.00085968704661 0
          52.091964722 0.0071967500262 0 63.319351196 0.0027080285363 0
          43.88053894 -0.00085749931168 0 59.613288879 -0.0019650105387 0
          0 0 0 63.317508698 -0.0015321405372 0
          34.109622955 -0.00019054664881 0 0 0 0
          58.02778244 0.0059667038731 0 0 0 0
          9.4769458771 0.004185595084 0 9.4788208008 0.00062378490111 0
          75.331222534 0.0016535922186 0 22.945524216 0.0086391726509 0
          22.944814682 0.00034312429489 0 75.330207825 -0.001046517631 0
          59.616943359 0.0048435814679 0 0 0 0
          52.089134216 -0.002035912592 0 34.111053467 0.010699988343 0
          58.024528503 -0.0024071249645 0 43.880607605 -0.0015411049826 0
          43.883644104 0.010159865022 0 59.613933563 -0.0024276827462 0
          34.109527588 -0.00086928874953 0 83.959060669 -9.6319385979e-015 0
          9.4777116776 0.0003730119497 0 0 0 0
          63.320365906 0.0038052026648 0 52.093128204 0.0088330768049 0
          22.944849014 -0.00019558222266 0 63.318439484 -0.0019133957103 0
          58.028972626 0.0074556926265 0 75.332817078 0.0022133570164 0
          0 0 0 52.089420319 -0.0027930056676 0
          43.880744934 -0.0022958067711 0 75.331222534 -0.0016535922186 0
          9.4768352509 0.00011631361122 0 0 0 0
          9.4781608582 0.0050277248956 0 34.109481812 -0.001594351721 0
          58.024993896 -0.0031255299691 0 22.945829391 0.010519224219 0
          59.617992401 0.0062565957196 0 59.614860535 -0.0029358472675 0
          34.111743927 0.013105921447 0 22.944879532 -0.00075205613393 0
          43.884731293 0.012422009371 0 83.961105347 -1.2168213587e-014 0
          0 0 0 9.476149559 -0.00014694819401 0