<?xml version="1.0"?>
<VTKFile type="PolyData" version="0.1" byte_order="LittleEndian" compressor="vtkZLibDataCompressor">
  <PolyData>
    <Piece NumberOfPoints="1071" NumberOfVerts="0" NumberOfLines="0" NumberOfStrips="0" NumberOfPolys="2000">
      <PointData>
        <DataArray type="Float32" Name="PRESSURE" format="ascii" RangeMin="-1577.5662842" RangeMax="0">
          0 -6.6984910965 0 -6.6135883331 0 -17.651788712
          -18.195274353 -7.3561110497 -19.51761055 0 -30.810045242 -31.868373871
          -11.154073715 -24.746629715 -33.685462952 0 -45.504047394 -46.909992218
          -13.304936409 -39.759304047 -49.072731018 -27.90855217 -55.818599701 0
          -61.438117981 -43.532585144 -15.09366703 -63.077484131 -65.484169006 -30.730224609
          -60.064487457 -72.83454895 -47.079933167 -78.500061035 0 -16.068962097
          -80.30682373 -32.457351685 -82.895896912 -64.206207275 -77.493591309 -90.809631348
          -49.37210083 -96.667770386 0 -82.157989502 -98.603439331 -16.693378448
          -66.943405151 -95.847373962 -101.33656311 -33.646194458 -109.7767334 -51.039276123
          -85.260932922 -100.98501587 0 -115.96385956 -69.013496399 -118.0031662
          -17.195495605 -115.16776276 -120.85399628 -34.562477112 -104.39791107 -52.301670074
          -129.78092957 -120.73846436 -87.67514801 -70.56362915 -135.50317383 0
          -136.43388367 -138.55702209 -17.419752121 -107.11057281 -141.50488281 -124.41963959
          -35.019878387 -89.465950012 -141.47000122 -150.87316895 -52.968795776 -156.90478516
          -71.410560608 -127.3939743 0 -109.10507965 -158.13456726 -145.38613892
          -160.32347107 -17.518939972 -163.34973145 -35.202823639 -163.23051453 -90.466110229
          -173.10668945 -53.22315979 -129.56277466 -148.59082031 -71.724861145 -179.42381287
          -167.35273743 -110.23682404 -181.12638855 0 -183.36302185 -17.419752121
          -186.44914246 -186.0687561 -35.019878387 -90.830337524 -150.90956116 -52.968795776
          -170.75930786 -196.53416443 -130.80848694 -110.64272308 -190.36994934 -71.410560608
          -203.10923767 0 -205.46839905 -17.195495605 -173.20669556 -207.73406982
          -152.25436401 -210.02980042 -90.466110229 -34.562477112 -210.86038208 -193.9508667
          -131.24931335 -52.301670074 -221.2049408 -214.48271179 -110.23682404 -70.56362915
          -228.0055542 -174.63735962 -196.50724792 -152.72445679 0 -231.21432495
          -89.465950012 -235.15357971 -218.21012878 -16.693378448 -233.48960876 -130.80848694
          -236.63465881 -33.646194458 -51.039276123 -247.16287231 -109.10507965 -239.729599
          -175.13174438 -198.01142883 -220.85644531 -254.15090942 -152.25436401 -69.013496399
          -243.57444763 -129.56277466 -261.47348022 -87.67514801 0 -258.409729
          -260.67449951 -16.068962097 -198.52545166 -32.457351685 -263.81463623 -174.63735962
          -222.42204285 -49.37210083 -107.11057281 -274.44421387 -266.14175415 -150.90956116
          -246.29145813 -66.943405151 -281.57550049 -270.07315063 -127.3939743 -198.01142883
          -289.01501465 -85.260932922 -222.9511261 -173.20669556 0 -287.08978271
          -247.90605164 -289.32351685 -15.09366703 -292.43270874 -30.730224609 -104.39791107
          -293.74197388 -148.59082031 -272.84066772 -47.079933167 -303.07598877 -64.206207275
          -310.30004883 -222.42204285 -196.50724792 -248.44560242 -297.72686768 -124.41963959
          -170.75930786 -317.79467773 -82.157989502 -274.49099731 0 -317.27786255
          -13.304936409 -319.4598999 -27.90855217 -145.38613892 -300.52307129 -322.50952148
          -322.54373169 -100.98501587 -220.85644531 -43.532585144 -333.07485962 -247.90605164
          -193.9508667 -275.03646851 -340.33496094 -60.064487457 -326.54690552 -120.73846436
          -167.35273743 -302.19485474 -347.8190918 -77.493591309 -246.29145813 -329.34838867
          -348.98483276 -141.47000122 0 -274.49099731 -218.21012878 -11.154073715
          -351.09463501 -95.847373962 -352.55065918 -24.746629715 -354.05331421 -190.36994934
          -302.74179077 -364.44604492 -39.759304047 -115.16776276 -55.818599701 -371.67932129
          -356.53491211 -163.23051453 -331.02658081 -243.57444763 -272.84066772 -72.83454895
          -379.08425903 -214.48271179 -302.19485474 -359.3170166 -135.50317383 -382.20877075
          0 -90.809631348 -384.22616577 -383.75588989 -186.0687561 -7.3561110497
          -331.57022095 -19.51761055 -387.05957031 -397.18304443 -33.685462952 -156.90478516
          -360.98632813 -270.07315063 -387.6824646 -109.7767334 -300.52307129 -49.072731018
          -239.729599 -404.32070923 -331.02658081 -210.02980042 -411.57519531 -65.484169006
          -390.41989136 -129.78092957 -179.42381287 -361.52151489 -82.895896912 -416.14151001
          0 -416.93554688 -6.6135883331 -418.84063721 -297.72686768 -421.51113892
          -18.195274353 -266.14175415 -235.15357971 -329.34838867 -150.87316895 -31.868373871
          -431.2673645 -392.06472778 -101.33656311 -419.9699707 -360.98632813 -46.909992218
          -203.10923767 -438.23480225 -445.26538086 -63.077484131 -422.63647461 -120.85399628
          -173.10668945 -392.58566284 -293.74197388 -326.54690552 -261.47348022 -449.67785645
          -80.30682373 -359.3170166 -453.1395874 -228.0055542 0 -6.6984910965
          -454.9128418 -17.651788712 -457.37887573 -141.50488281 -424.23995972 -30.810045242
          -466.66860962 -98.603439331 -392.06472778 -453.36572266 -196.53416443 -45.504047394
          -473.38537598 -322.54373169 -289.01501465 -163.34973145 -424.74066162 -118.0031662
          -480.1164856 -455.93252563 -254.15090942 -356.53491211 -61.438117981 -390.41989136
          -221.2049408 -78.500061035 -484.32293701 -490.78530884 -492.40737915 -138.55702209
          -457.4753418 -494.62255859 -186.44914246 -424.23995972 -487.82504272 -96.667770386
          -317.79467773 -503.34506226 -352.55065918 -281.57550049 -509.7244873 -387.6824646
          -247.16287231 -457.95037842 -160.32347107 -115.96385956 -490.25961304 -516.078125
          -210.86038208 -422.63647461 -520.02264404 -491.72009277 -136.43388367 -347.8190918
          -310.30004883 -457.4753418 -183.36302185 -529.82873535 -531.28009033 -274.44421387
          -383.75588989 -533.19219971 -523.29107666 -419.9699707 -541.24420166 -236.63465881
          -547.19281006 -492.16455078 -158.13456726 -207.73406982 -525.55743408 -455.93252563
          -553.08813477 -340.33496094 -303.07598877 -379.08425903 -556.71081543 -416.14151001
          -263.81463623 -491.72009277 -181.12638855 -526.91381836 -570.21936035 -233.48960876
          -453.36572266 -571.4798584 -573.02941895 -559.69555664 -580.30371094 -527.3223877
          -205.46839905 -490.25961304 -585.72009277 -371.67932129 -333.07485962 -561.75720215
          -292.43270874 -411.57519531 -591.0723877 -449.67785645 -260.67449951 -526.91381836
          -594.3092041 -562.99023438 -231.21432495 -487.82504272 -611.90185547 -612.95031738
          -596.95837402 -364.44604492 -614.06890869 -404.32070923 -322.50952148 -563.35516357
          -620.45202637 -525.55743408 -445.26538086 -289.32351685 -625.22521973 -598.78088379
          -484.32293701 -258.409729 -629.94470215 -562.99023438 -523.29107666 -599.87231445
          -632.72595215 -354.05331421 -397.18304443 -438.23480225 -319.4598999 -634.98443604
          -654.81787109 -287.08978271 -480.1164856 -655.63140869 -561.75720215 -600.1831665
          -656.23974609 -661.60876465 -520.02264404 -636.53277588 -665.61602783 -387.05957031
          -599.87231445 -669.605896 -431.2673645 -351.09463501 -559.69555664 -473.38537598
          -317.27786255 -637.45837402 -671.8538208 -516.078125 -598.78088379 -673.65991211
          -698.90710449 -637.70440674 -699.46038818 -556.71081543 -699.46618652 -703.68536377
          -421.51113892 -384.22616577 -674.88867188 -466.66860962 -348.98483276 -706.78955078
          -509.7244873 -637.45837402 -596.95837402 -709.9432373 -675.61157227 -553.08813477
          -711.56945801 -636.53277588 -418.84063721 -457.37887573 -382.20877075 -712.85003662
          -675.78613281 -594.3092041 -744.10827637 -503.34506226 -744.37304688 -743.66876221
          -746.58508301 -713.69555664 -547.19281006 -748.63146973 -634.98443604 -675.61157227
          -750.82928467 -591.0723877 -714.17059326 -454.9128418 -416.93554688 -494.62255859
          -751.73284912 -674.88867188 -632.72595215 -541.24420166 -714.27105713 -752.40216064
          -790.35870361 -790.30310059 -585.72009277 -788.76385498 -752.78814697 -790.20269775
          -673.65991211 -714.17059326 -791.01434326 -453.1395874 -629.94470215 -492.40737915
          -533.19219971 -792.11932373 -752.97814941 -580.30371094 -713.69555664 -792.18579102
          -671.8538208 -752.99768066 -625.22521973 -792.14990234 -490.78530884 -837.59368896
          -837.18170166 -712.85003662 -834.66271973 -531.28009033 -792.00817871 -669.605896
          -752.97814941 -834.42236328 -573.02941895 -833.79400635 -620.45202637 -791.89483643
          -833.6473999 -711.56945801 -752.78814697 -832.74810791 -665.61602783 -791.81066895
          -529.82873535 -571.4798584 -831.91131592 -752.40216064 -885.74365234 -614.06890869
          -709.9432373 -884.93493652 -881.26947021 -791.89483643 -831.19543457 -879.11444092
          -661.60876465 -876.8057251 -830.75872803 -751.73284912 -875.22418213 -792.00817871
          -570.21936035 -706.78955078 -873.21429443 -612.95031738 -830.53308105 -871.47515869
          -656.23974609 -792.14990234 -750.82928467 -934.73101807 -830.75872803 -933.48046875
          -870.13513184 -928.47833252 -703.68536377 -924.13336182 -611.90185547 -919.86535645
          -792.18579102 -869.30822754 -748.63146973 -831.19543457 -916.6395874 -655.63140869
          -913.35150146 -868.91235352 -699.46618652 -792.11932373 -910.58050537 -831.91131592
          -746.58508301 -869.30822754 -984.4644165 -908.5020752 -982.72296143 -654.81787109
          -976.16998291 -969.31646729 -832.74810791 -699.46038818 -962.77081299 -791.01434326
          -907.15667725 -870.13513184 -957.66217041 -743.66876221 -952.89361572 -906.59881592
          -833.6473999 -871.47515869 -948.9050293 -790.20269775 -698.90710449 -907.15667725
          -945.88262939 -1034.831543 -744.37304688 -1032.5471191 -1024.2056885 -873.21429443
          -833.79400635 -1014.4795532 -908.5020752 -943.89471436 -1005.2929077 -788.76385498
          -998.01977539 -943.20751953 -875.22418213 -991.52349854 -744.10827637 -910.58050537
          -834.42236328 -986.08276367 -790.30310059 -943.89471436 -981.89801025 -876.8057251
          -1085.6889648 -1082.8071289 -913.35150146 -1072.4168701 -834.66271973 -1059.4017334
          -945.88262939 -979.24554443 -1047.1470947 -1037.3647461 -790.35870361 -916.6395874
          -978.41192627 -879.11444092 -1028.8564453 -948.9050293 -837.18170166 -1021.744751
          -979.24554443 -919.86535645 -952.89361572 -1016.3067627 -881.26947021 -1136.8486328
          -1133.3135986 -1120.5905762 -981.89801025 -1103.8052979 -1013.0470581 -1087.9697266
          -837.59368896 -957.66217041 -924.13336182 -1075.2679443 -1011.9324951 -986.08276367
          -884.93493652 -1064.4594727 -1055.5340576 -1013.0470581 -962.77081299 -928.47833252
          -991.52349854 -1048.8873291 -1188.0634766 -1183.819458 -1168.4587402 -885.74365234
          -1016.3067627 -1147.3516846 -1044.9498291 -1127.3444824 -969.31646729 -998.01977539
          -1111.2868652 -933.48046875 -1021.744751 -1043.3571777 -1097.9039307 -1087.027832
          -1005.2929077 -1044.9498291 -976.16998291 -1028.8564453 -1079.0968018 -934.73101807
          -1239.0109863 -1048.8873291 -1234.0074463 -1215.6948242 -1074.1081543 -1189.6633301
          -1014.4795532 -1037.3647461 -1164.8709717 -982.72296143 -1145.0412598 -1055.5340576
          -1071.9647217 -1128.7568359 -1047.1470947 -1024.2056885 -1074.1081543 -1115.5820313
          -1064.4594727 -984.4644165 -1105.8791504 -1079.0968018 -1289.2749023 -1059.4017334
          -1283.4731445 -1261.90271 -1099.3693848 -1075.2679443 -1032.5471191 -1230.333374
          -1200.1583252 -1087.027832 -1096.850708 -1176.1152344 -1156.4125977 -1072.4168701
          -1087.9697266 -1034.831543 -1099.3693848 -1097.9039307 -1140.2763672 -1128.0566406
          -1105.8791504 -1103.8052979 -1082.8071289 -1111.2868652 -1338.3203125 -1331.6943359
          -1119.9885254 -1306.5734863 -1268.8455811 -1232.6289063 -1115.5820313 -1117.3413086
          -1203.7374268 -1120.5905762 -1127.3444824 -1085.6889648 -1179.9127197 -1119.9885254
          -1128.7568359 -1160.1690674 -1145.088623 -1147.3516846 -1133.3135986 -1128.0566406
          -1145.0412598 -1385.4641113 -1377.9906006 -1135.9866943 -1349.0168457 -1304.4265137
          -1140.2763672 -1261.2874756 -1168.4587402 -1133.1616211 -1136.8486328 -1226.6563721
          -1164.8709717 -1198.1716309 -1156.4125977 -1135.9866943 -1174.7387695 -1183.819458
          -1189.6633301 -1157.1697998 -1145.088623 -1176.1152344 -1147.2608643 -1429.8586426
          -1421.5019531 -1388.3334961 -1336.0408936 -1160.1690674 -1215.6948242 -1188.0634766
          -1284.9302979 -1200.1583252 -1143.8338623 -1243.7852783 -1210.6450195 -1179.9127197
          -1147.2608643 -1183.8675537 -1234.0074463 -1230.333374 -1157.1697998 -1164.0269775
          -1203.7374268 -1152.0637207 -1470.5046387 -1461.2219238 -1261.90271 -1423.5097656
          -1174.7387695 -1239.0109863 -1362.7233887 -1232.6289063 -1302.9313965 -1147.6269531
          -1255.1407471 -1198.1716309 -1217.3944092 -1152.0637207 -1283.4731445 -1268.8455811
          -1186.9643555 -1226.6563721 -1164.0269775 -1163.6530762 -1289.2749023 -1147.1265869
          -1306.5734863 -1506.2943115 -1183.8675537 -1496.0594482 -1453.5534668 -1261.2874756
          -1383.9293213 -1141.5321045 -1315.5333252 -1261.1420898 -1210.6450195 -1331.6943359
          -1217.5655518 -1147.1265869 -1304.4265137 -1181.9973145 -1243.7852783 -1163.6530762
          -1153.1119385 -1338.3203125 -1349.0168457 -1130.4783936 -1186.9643555 -1536.0523682
          -1284.9302979 -1524.8358154 -1477.3934326 -1399.0445557 -1123.1503906 -1322.105835
          -1217.3944092 -1259.6749268 -1377.9906006 -1130.4783936 -1336.0408936 -1207.6447754
          -1165.6707764 -1255.1407471 -1153.1119385 -1385.4641113 -1131.0755615 -1388.3334961
          -1103.9654541 -1181.9973145 -1302.9313965 -1558.5634766 -1546.1987305 -1493.40979
          -1405.9638672 -1092.9273682 -1318.8114014 -1421.5019531 -1217.5655518 -1245.3015137
          -1362.7233887 -1103.9654541 -1183.1928711 -1261.1420898 -1135.2144775 -1131.0755615
          -1429.8586426 -1423.5097656 -1098.7338867 -1165.6707764 -1315.5333252 -1071.4287109
          -1572.6634521 -1558.6691895 -1499.3170166 -1052.2001953 -1401.5020752 -1461.2219238
          -1302.2772217 -1207.6447754 -1383.9293213 -1216.9434814 -1071.4287109 -1145.6385498
          -1259.6749268 -1470.5046387 -1090.8571777 -1098.7338867 -1453.5534668 -1057.8536377
          -1322.105835 -1135.2144775 -1035.0793457 -1577.5662842 -1561.0567627 -1496.0594482
          -1493.8587646 -1001.1299438 -1387.651001 -1183.1928711 -1280.0855713 -1399.0445557
          -1186.4685059 -1035.0793457 -1104.8695068 -1506.2943115 -1245.3015137 -1033.0446777
          -1477.3934326 -1057.8536377 -1000.4360352 -1318.8114014 -1090.8571777 -983.543396
          -1524.8358154 -1573.3774414 -1552.9927979 -1479.4246826 -930.90386963 -1145.6385498
          -1369.9418945 -1405.9638672 -1256.3736572 -1150.0230713 -983.543396 -1536.0523682
          -1044.8359375 -1216.9434814 -1493.40979 -938.04675293 -1000.4360352 -888.48114014
          -1302.2772217 -1033.0446777 -894.12860107 -1546.1987305 -1562.7340088 -1534.8673096
          -864.39532471 -1104.8695068 -1454.6635742 -1401.5020752 -1339.2663574 -1209.765625
          -894.12860107 -1558.5634766 -1080.3398438 -1186.4685059 -957.64709473 -1499.3170166
          -888.48114014 -811.09686279 -700.11651611 -1280.0855713 -938.04675293 -1558.6691895
          -809.67822266 -1387.651001 -1549.2637939 -1044.8359375 -1518.6202393 -994.03979492
          -1437.2089844 -1319.0635986 -1181.2261963 -1572.6634521 -809.67822266 -1029.5401611
          -1150.0230713 -1493.8587646 -852.79248047 -700.11651611 -711.75146484 -1256.3736572
          -716.67675781 -811.09686279 -1561.0567627 -735.65460205 -1369.9418945 -957.64709473
          -797.75299072 -1577.5662842 -735.65460205 -1080.3398438 -1479.4246826 -716.67675781
          -1209.765625 -1552.9927979 -711.75146484 -1339.2663574 -852.79248047 -1573.3774414
          -1454.6635742 -1029.5401611 -1181.2261963 -1534.8673096 -1319.0635986 -1562.7340088
          -1437.2089844 -1518.6202393 -1549.2637939
        </DataArray>
        <DataArray type="Float32" Name="VELOCITY" NumberOfComponents="3" ComponentName0="X-VELOCITY" ComponentName1="Y-VELOCITY" ComponentName2="Z-VELOCITY" format="ascii" RangeMin="0" RangeMax="88.690551758">
          0 0 0 0 0 0
          22.42133522 0.0089878253639 0 22.441104889 0.073233947158 0
          21.134899139 0.11845013499 0 0 0 0
          22.327362061 0.10382217169 0 21.208068848 0.12121657282 0
          21.302406311 0.13343068957 0 40.30291748 0.0535409078 0
          0 0 0 22.169616699 0.12325914204 0
          40.300922394 0.067277014256 0 40.28319931 0.073634490371 0
          21.423139572 0.14465680718 0 46.530578613 0.072595112026 0
          0 0 0 21.983913422 0.13821774721 0
          46.530334473 0.079769194126 0 40.251976013 0.079938083887 0
          21.566364288 0.15570950508 0 46.536655426 0.08933892101 0
          40.210922241 0.086868554354 0 55.803955078 0.062937676907 0
          0 0 0 46.54851532 0.098324544728 0
          55.813793182 0.066238045692 0 21.775659561 0.15142060816 0
          21.728258133 0.1669549197 0 55.826698303 0.071412950754 0
          46.565208435 0.10725150257 0 40.161540985 0.094521775842 0
          55.841018677 0.077148422599 0 0 0 0
          61.069301605 0.052013460547 0 61.080513 0.055052060634 0
          21.547382355 0.16405177116 0 61.092285156 0.0599652417 0
          21.906503677 0.17853213847 0 55.855709076 0.083211652935 0
          46.586700439 0.1163424626 0 40.104553223 0.10286878794 0
          61.105262756 0.065401278436 0 0 0 0
          62.625850677 0.039323259145 0 55.870265961 0.089592717588 0
          21.300466537 0.17650552094 0 62.641677856 0.04049198702 0
          61.119762421 0.071104459465 0 46.613082886 0.12566557527 0
          22.099685669 0.19041468203 0 62.660461426 0.043278101832 0
          40.040477753 0.11185433716 0 62.681705475 0.046644780785 0
          61.136112213 0.077019669116 0 55.884441376 0.09628803283 0
          66.589813232 0.023124411702 0 0 0 0
          62.704936981 0.05029579252 0 21.035890579 0.1887884438 0
          66.602416992 0.024328388274 0 46.644447327 0.13519829512 0
          22.306661606 0.20246125758 0 66.615180969 0.026030117646 0
          61.154605865 0.083123221993 0 66.628585815 0.028148062527 0
          39.969852448 0.12138918787 0 55.898124695 0.10326226056 0
          62.729888916 0.054132569581 0 66.642982483 0.030507916585 0
          46.680843353 0.14485660195 0 78.660118103 0.011928920634 0
          0 0 0 20.75460434 0.20072352886 0
          78.671821594 0.012620617636 0 62.756416321 0.058111857623 0
          22.526199341 0.21445819736 0 61.175457001 0.089375115931 0
          78.684516907 0.013549922034 0 66.658584595 0.033023703843 0
          55.91129303 0.11044747382 0 39.893302917 0.13134071231 0
          78.698303223 0.014608440921 0 46.722221375 0.15450912714 0
          78.713256836 0.015757789835 0 62.784461975 0.062194660306 0
          87.232177734 1.5663904161e-014 0 66.675521851 0.035641603172 0
          0 0 0 61.198833466 0.09570915252 0
          20.457735062 0.21205314994 0 87.244918823 2.7500754224e-014 0
          22.75683403 0.22615082562 0 87.25844574 3.2796868384e-014 0
          55.923984528 0.11774557084 0 78.729446411 0.016971828416 0
          39.811573029 0.14153422415 0 87.272926331 2.9092396894e-014 0
          66.693901062 0.038316078484 0 62.814014435 0.066330730915 0
          87.288467407 7.4325607992e-015 0 46.768421173 0.16398859024 0
          61.224826813 0.10203514248 0 78.746902466 0.018227344379 0
          0 0 0 78.660118103 -0.011928920634 0
          20.146688461 0.22249273956 0 78.671821594 -0.012620617636 0
          22.99681282 0.2372648567 0 55.936264038 0.12503281236 0
          78.684516907 -0.013549922034 0 87.305168152 -1.3522132226e-014 0
          66.713783264 0.041005883366 0 78.698303223 -0.014608440921 0
          62.845058441 0.070462487638 0 39.725521088 0.15175975859 0
          78.765632629 0.019502872601 0 87.323104858 -3.3038293103e-014 0
          61.253463745 0.10824776441 0 78.713256836 -0.015757789835 0
          46.819171906 0.17310328782 0 66.589813232 -0.023124411702 0
          0 0 0 66.602416992 -0.024328388274 0
          66.735206604 0.04368166253 0 19.823171616 0.23176036775 0
          78.785636902 0.020784700289 0 55.948234558 0.13216671348 0
          78.729446411 -0.016971828416 0 66.615180969 -0.026030117646 0
          23.244123459 0.2475207895 0 62.877571106 0.074534460902 0
          87.342323303 -4.4068796599e-014 0 66.628585815 -0.028148062527 0
          39.636108398 0.16178098321 0 61.284702301 0.1142353639 0
          78.746902466 -0.018227344379 0 66.642982483 -0.030507916585 0
          46.874080658 0.18164801598 0 78.806877136 0.022070351988 0
          66.758148193 0.046325232834 0 87.362846375 -3.489793361e-014 0
          62.625850677 -0.039323259145 0 0 0 0
          66.658584595 -0.033023703843 0 55.960002899 0.13899293542 0
          62.911487579 0.078491397202 0 62.641677856 -0.04049198702 0
          19.489200592 0.23959471285 0 78.765632629 -0.019502872601 0
          23.496545792 0.2566447258 0 62.660461426 -0.043278101832 0
          62.681705475 -0.046644780785 0 39.544384003 0.17134459317 0
          66.675521851 -0.035641603172 0 61.31842041 0.1198810488 0
          87.384712219 -9.9916158924e-015 0 78.829338074 0.023357350379 0
          66.782592773 0.048907160759 0 46.932647705 0.18941415846 0
          78.785636902 -0.020784700289 0 62.704936981 -0.05029579252 0
          62.946716309 0.082259729505 0 66.693901062 -0.038316078484 0
          55.971672058 0.14534969628 0 62.729888916 -0.054132569581 0
          61.069301605 -0.052013460547 0 0 0 0
          19.147054672 0.24576669931 0 61.080513 -0.055052060634 0
          87.407928467 6.2354969922e-015 0 61.092285156 -0.0599652417 0
          23.751718521 0.26437714696 0 78.806877136 -0.022070351988 0
          78.852989197 0.024620264769 0 61.105262756 -0.065401278436 0
          62.756416321 -0.058111857623 0 39.451438904 0.18019036949 0
          61.354450226 0.12505577505 0 66.713783264 -0.041005883366 0
          66.80847168 0.051357712597 0 61.119762421 -0.071104459465 0
          46.994285583 0.19619821012 0 62.983177185 0.08573063463 0
          62.784461975 -0.062194660306 0 78.829338074 -0.023357350379 0
          55.983333588 0.15106989443 0 61.136112213 -0.077019669116 0
          87.432502747 1.7284849089e-014 0 66.735206604 -0.04368166253 0
          55.803955078 -0.062937676907 0 0 0 0
          78.877784729 0.025800973177 0 18.799243927 0.25008785725 0
          55.813793182 -0.066238045692 0 24.007209778 0.27048116922 0
          55.826698303 -0.071412950754 0 61.154605865 -0.083123221993 0
          61.392562866 0.12961533666 0 62.814014435 -0.066330730915 0
          66.835754395 0.053570125252 0 55.841018677 -0.077148422599 0
          39.358383179 0.18806181848 0 55.855709076 -0.083211652935 0
          47.058326721 0.20180988312 0 78.852989197 -0.024620264769 0
          66.758148193 -0.046325232834 0 87.458358765 1.6025194206e-014 0
          63.020774841 0.088775128126 0 61.175457001 -0.089375115931 0
          62.845058441 -0.070462487638 0 55.995090485 0.15598614514 0
          55.870265961 -0.089592717588 0 78.903640747 0.026837212965 0
          46.530578613 -0.072595112026 0 0 0 0
          46.530334473 -0.079769194126 0 18.448440552 0.25241628289 0
          46.536655426 -0.08933892101 0 61.198833466 -0.09570915252 0
          66.864318848 0.055457435548 0 24.260606766 0.27475008368 0
          61.43252182 0.1334155947 0 55.884441376 -0.09628803283 0
          66.782592773 -0.048907160759 0 46.54851532 -0.098324544728 0
          39.266300201 0.1947170049 0 78.877784729 -0.025800973177 0
          62.877571106 -0.074534460902 0 87.485351563 2.7754284737e-014 0
          47.124046326 0.20607994497 0 46.565208435 -0.10725150257 0
          63.059379578 0.091296486557 0 55.898124695 -0.10326226056 0
          61.224826813 -0.10203514248 0 78.930397034 0.027716653422 0
          56.007022858 0.15994141996 0 46.586700439 -0.1163424626 0
          66.80847168 -0.051357712597 0 66.893997192 0.057020798326 0
          0 0 0 55.91129303 -0.11044747382 0
          40.30291748 -0.0535409078 0 78.903640747 -0.026837212965 0
          62.911487579 -0.078491397202 0 40.300922394 -0.067277014256 0
          18.097425461 0.25266027451 0 46.613082886 -0.12566557527 0
          61.474018097 0.13634330034 0 40.28319931 -0.073634490371 0
          24.509572983 0.27701470256 0 61.253463745 -0.10824776441 0
          87.513343811 3.9232025018e-014 0 39.176200867 0.19993904233 0
          40.251976013 -0.079938083887 0 46.644447327 -0.13519829512 0
          40.210922241 -0.086868554354 0 47.190704346 0.208867535 0
          63.098770142 0.093274690211 0 55.923984528 -0.11774557084 0
          78.957870483 0.028496034443 0 62.946716309 -0.082259729505 0
          66.835754395 -0.053570125252 0 40.161540985 -0.094521775842 0
          56.019187927 0.16280269623 0 61.284702301 -0.1142353639 0
          78.930397034 -0.027716653422 0 66.924507141 0.058338783681 0
          46.680843353 -0.14485660195 0 0 0 0
          21.134899139 -0.11845013499 0 40.104553223 -0.10286878794 0
          17.749015808 0.25078043342 0 61.516674042 0.13833557069 0
          55.936264038 -0.12503281236 0 21.208068848 -0.12121657282 0
          87.542228699 3.5429792374e-014 0 21.302406311 -0.13343068957 0
          24.751922607 0.27714928985 0 39.089015961 0.20354497433 0
          21.423139572 -0.14465680718 0 46.722221375 -0.15450912714 0
          78.985923767 0.029231164604 0 62.983177185 -0.08573063463 0
          63.138618469 0.094736903906 0 40.040477753 -0.11185433716 0
          66.864318848 -0.055457435548 0 21.566364288 -0.15570950508 0
          61.31842041 -0.1198810488 0 47.257541656 0.21006543934 0
          78.957870483 -0.028496034443 0 55.948234558 -0.13216671348 0
          56.031608582 0.16446915269 0 21.728258133 -0.1669549197 0
          66.955581665 0.059437014163 0 39.969852448 -0.12138918787 0
          46.768421173 -0.16398859024 0 87.571983337 3.8957830289e-014 0
          21.906503677 -0.17853213847 0 61.560028076 0.13936109841 0
          22.42133522 -0.0089878253639 0 0 0 0
          22.441104889 -0.073233947158 0 17.406007767 0.2467893362 0
          63.020774841 -0.088775128126 0 24.985671997 0.2750761807 0
          22.327362061 -0.10382217169 0 61.354450226 -0.12505577505 0
          55.960002899 -0.13899293542 0 66.893997192 -0.057020798326 0
          39.893302917 -0.13134071231 0 22.169616699 -0.12325914204 0
          39.005542755 0.2053925395 0 79.014503479 0.029855899513 0
          22.099685669 -0.19041468203 0 63.178596497 0.095648683608 0
          78.985923767 -0.029231164604 0 21.983913422 -0.13821774721 0
          46.819171906 -0.17310328782 0 47.323829651 0.20960335433 0
          56.044242859 0.16487076879 0 21.775659561 -0.15142060816 0
          66.987083435 0.060144368559 0 22.306661606 -0.20246125758 0
          39.811573029 -0.14153422415 0 87.602508545 4.3110599048e-014 0
          61.392562866 -0.12961533666 0 63.059379578 -0.091296486557 0
          55.971672058 -0.14534969628 0 61.603603363 0.1393699199 0
          21.547382355 -0.16405177116 0 66.924507141 -0.058338783681 0
          0 0 0 46.874080658 -0.18164801598 0
          0 0 0 0 0 0
          17.071107864 0.24074962735 0 0 0 0
          25.209087372 0.27076879144 0 22.526199341 -0.21445819736 0
          79.043518066 0.030154472217 0 0 0 0
          38.926456451 0.20538531244 0 21.300466537 -0.17650552094 0
          79.014503479 -0.029855899513 0 63.218513489 0.095829948783 0
          39.725521088 -0.15175975859 0 0 0 0
          47.38885498 0.20745187998 0 61.43252182 -0.1334155947 0
          55.983333588 -0.15106989443 0 22.75683403 -0.22615082562 0
          87.633483887 4.3658188908e-014 0 21.035890579 -0.1887884438 0
          56.057022095 0.16396060586 0 67.018974304 0.060142379254 0
          46.932647705 -0.18941415846 0 63.098770142 -0.093274690211 0
          0 0 0 66.955581665 -0.059437014163 0
          39.636108398 -0.16178098321 0 0 0 0
          61.647033691 0.13826212287 0 0 0 0
          16.746881485 0.23277005553 0 20.75460434 -0.20072352886 0
          79.072692871 0.029943339527 0 25.420713425 0.26425239444 0
          22.99681282 -0.2372648567 0 79.043518066 -0.030154472217 0
          63.258331299 0.095036916435 0 0 0 0
          55.995090485 -0.15598614514 0 38.852272034 0.20347744226 0
          61.474018097 -0.13634330034 0 46.994285583 -0.19619821012 0
          47.451969147 0.20362637937 0 63.138618469 -0.094736903906 0
          39.544384003 -0.17134459317 0 87.664344788 2.6686198214e-014 0
          20.457735062 -0.21205314994 0 0 0 0
          67.051101685 0.059284649789 0 56.069889069 0.16170561314 0
          23.244123459 -0.2475207895 0 66.987083435 -0.060144368559 0
          61.690078735 0.13592775166 0 79.101547241 0.029352501035 0
          0 0 0 56.007022858 -0.15994141996 0
          47.058326721 -0.20180988312 0 79.072692871 -0.029943339527 0
          20.146688461 -0.22249273956 0 0 0 0