<?xml version="1.0"?>
<VTKFile type="PolyData" version="0.1" byte_order="LittleEndian" compressor="vtkZLibDataCompressor">
  <PolyData>
    <Piece NumberOfPoints="1071" NumberOfVerts="0" NumberOfLines="0" NumberOfStrips="0" NumberOfPolys="2000">
      <PointData>
        <DataArray type="Float32" Name="PRESSURE" format="ascii" RangeMin="0" RangeMax="27984.460938">
          0 446.34823608 0 446.80487061 0 877.15893555
          876.19177246 440.31390381 871.20617676 0 1304.307373 1303.0333252
          434.90213013 866.01824951 1299.2122803 0 1730.4836426 1729.3139648
          431.96102905 1294.9851074 1726.2797852 862.51696777 1722.8572998 0
          2156.361084 1291.7524414 430.44976807 2155.3742676 2152.9143066 860.35113525
          1720.052124 2150.1027832 1289.4821777 2582.1091309 0 429.64279175
          2581.2919922 859.02587891 2579.2719727 1717.914917 2147.7055664 2576.9353027
          1287.9455566 3007.7680664 0 2145.7834473 3007.092041 429.17279053
          1716.3642578 2574.8955078 3005.4208984 858.19433594 3003.4682617 1286.9147949
          2144.3227539 2573.2070313 0 3433.3461914 1715.269043 3432.7866211
          428.89593506 3001.7387695 3431.4013672 857.68658447 2571.8845215 1286.2590332
          3429.7702637 3000.2780762 2143.2519531 1714.5471191 3428.3127441 0
          3858.8449707 3858.3830566 428.74996948 2570.8891602 3857.2402344 2999.1115723
          857.41174316 2142.5263672 3427.0661621 3855.8869629 1285.8942871 3854.6713867
          1714.1358643 2998.2177734 0 2570.2009277 4284.2636719 3426.0585938
          4283.8867188 428.70510864 4282.9560547 857.32421875 3853.6242676 2142.1052246
          4281.8500977 1285.7763672 2997.5905762 3425.277832 1714.0018311 4280.8544922
          3852.7729492 2569.7956543 4709.6010742 0 4709.2998047 428.74996948
          4708.5625 4279.9946289 857.41174316 2141.967041 3424.7246094 1285.8942871
          3852.1083984 4707.6831055 2997.2177734 2569.6618652 4279.2944336 1714.1358643
          4706.8930664 0 5134.8540039 428.89593506 3851.6347656 5134.6230469
          3424.3933105 4706.2114258 2142.1052246 857.68658447 5134.0678711 4278.746582
          2997.0942383 1286.2590332 5133.4038086 4705.6582031 2569.7956543 1714.5471191
          5132.8110352 3851.3496094 4278.3549805 3424.2832031 0 5560.0185547
          2142.5263672 5132.3027344 4705.2265625 429.17279053 5559.8554688 2997.2177734
          5559.4775391 858.19433594 1286.9147949 5559.0258789 2570.2009277 5131.8964844
          3851.2548828 4278.1186523 4704.918457 5558.6289063 3424.3933105 1715.269043
          5131.581543 2997.5905762 5558.2958984 2143.2519531 0 5985.0869141
          5984.9921875 429.64279175 4278.0395508 859.02587891 5984.7949219 3851.3496094
          4704.7324219 1287.9455566 2570.8891602 5984.5595703 5558.0375977 3424.7246094
          5131.3588867 1716.3642578 5984.3647461 5557.8432617 2998.2177734 4278.1186523
          5984.2128906 2144.3227539 4704.6699219 3851.6347656 0 6410.050293
          5131.2241211 6410.0263672 430.44976807 6410.0200195 860.35113525 2571.8845215
          5984.1108398 3425.277832 5557.7089844 1289.4821777 6410.0141602 1717.914917
          6410.034668 4704.7324219 4278.3549805 5131.1787109 5984.043457 2999.1115723
          3852.1083984 6410.078125 2145.7834473 5557.6279297 0 6834.8945313
          431.96102905 6834.9472656 862.51696777 3426.0585938 5984.0029297 6835.1494141
          6410.1445313 2573.2070313 4704.918457 1291.7524414 6835.3955078 5131.2241211
          4278.746582 5557.6005859 6835.6542969 1720.052124 6410.215332 3000.2780762
          3852.7729492 5983.9785156 6835.9135742 2147.7055664 5131.3588867 6410.2763672
          7259.6015625 3427.0661621 0 5557.6279297 4705.2265625 434.90213013
          7259.7402344 2574.8955078 6836.1689453 866.01824951 7260.1777344 4279.2944336
          5983.9702148 7260.7089844 1294.9851074 3001.7387695 1722.8572998 7261.2392578
          6836.3945313 3853.6242676 6410.3149414 5131.581543 5557.7089844 2150.1027832
          7261.7451172 4705.6582031 5983.9785156 6836.5708008 3428.3127441 7684.1494141
          0 2576.9353027 7684.3852539 7262.2163086 4279.9946289 440.31390381
          6410.3276367 871.20617676 7685.0952148 7685.9580078 1299.2122803 3854.6713867
          6836.6801758 5557.8432617 7262.6206055 3003.4682617 5984.0029297 1726.2797852
          5131.8964844 7686.8051758 6410.3149414 4706.2114258 7687.6000977 2152.9143066
          7262.9306641 3429.7702637 4280.8544922 6836.7158203 2579.2719727 7688.324707
          0 8108.5068359 446.80487061 8108.8579102 5984.043457 8109.8896484
          876.19177246 5558.0375977 5132.3027344 6410.2763672 3855.8869629 1303.0333252
          8111.1459961 7263.1225586 3005.4208984 7688.9389648 6836.6801758 1729.3139648
          4706.8930664 8112.3696289 8113.5087891 2155.3742676 7689.4072266 3431.4013672
          4281.8500977 7263.1850586 5984.1108398 6410.215332 5558.2958984 8114.5366211
          2581.2919922 6836.5708008 8532.6376953 5132.8110352 0 446.34823608
          8533.125 877.15893555 8534.5429688 3857.2402344 7689.6958008 1304.307373
          8536.2734375 3007.092041 7263.1225586 8115.4013672 4707.6831055 1730.4836426
          8537.9521484 6410.1445313 5984.2128906 4282.9560547 7689.7895508 3432.7866211
          8539.5078125 8116.0581055 5558.6289063 6836.3945313 2156.361084 7262.9306641
          5133.4038086 2582.1091309 8540.9013672 8956.4960938 8957.1474609 3858.3830566
          8116.4609375 8959.0351563 4708.5625 7689.6958008 8542.0693359 3007.7680664
          6410.078125 8961.3427734 6836.1689453 5984.3647461 8963.5771484 7262.6206055
          5559.0258789 8116.5932617 4283.8867188 3433.3461914 8542.9521484 8965.640625
          5134.0678711 7689.4072266 8967.4814453 8543.4921875 3858.8449707 6835.9135742
          6410.034668 8116.4609375 4709.2998047 9380.0234375 9380.875 5984.5595703
          7262.2163086 9383.3369141 8969.0195313 7688.9389648 9386.3544922 5559.4775391
          9389.2724609 8543.671875 4284.2636719 5134.6230469 8970.1757813 8116.0581055
          9391.9599609 6835.6542969 6410.0141602 7261.7451172 9394.3515625 7688.324707
          5984.7949219 8543.4921875 4709.6010742 8970.8847656 9803.1513672 5559.8554688
          8115.4013672 9804.2470703 9807.4160156 9396.3447266 9811.3105469 8971.1230469
          5134.8540039 8542.9521484 9815.0732422 7261.2392578 6835.3955078 9397.8417969
          6410.0200195 7687.6000977 9818.5322266 8114.5366211 5984.9921875 8970.8847656
          9821.6044922 9398.7626953 5560.0185547 8542.0693359 10225.792969 10227.189453
          9824.1630859 7260.7089844 10231.232422 7686.8051758 6835.1494141 9399.0703125
          10236.211914 8970.1757813 8113.5087891 6410.0263672 10241.023438 9826.0859375
          8540.9013672 5985.0869141 10245.438477 9398.7626953 8969.0195313 9827.2714844
          10249.354492 7260.1777344 7685.9580078 8112.3696289 6834.9472656 10252.614258
          10647.84668 6410.050293 8539.5078125 10649.613281 9397.8417969 9827.6630859
          10654.736328 10661.063477 8967.4814453 10255.067383 10667.176758 7685.0952148
          9827.2714844 10672.779297 8111.1459961 7259.7402344 9396.3447266 8537.9521484
          6834.8945313 10256.578125 10677.743164 8965.640625 9826.0859375 10681.870117
          11069.185547 10257.073242 11071.40918 9394.3515625 11077.870117 11085.871094
          8109.8896484 7684.3852539 10684.974609 8536.2734375 7259.6015625 11093.604492
          8963.5771484 10256.578125 9824.1630859 11100.682617 10686.875977 9391.9599609
          11106.944336 10255.067383 8108.8579102 8534.5429688 7684.1494141 11112.143555
          10687.505859 9821.6044922 11489.662109 8961.3427734 11492.449219 11500.566406
          11510.648438 11116.041016 9389.2724609 11520.395508 10252.614258 10686.875977
          11529.307617 9818.5322266 11118.420898 8533.125 8108.5068359 8959.0351563
          11537.179688 10684.974609 10249.354492 9386.3544922 11119.225586 11543.705078
          11909.094727 11912.576172 9815.0732422 11922.746094 11548.579102 11935.413086
          10681.870117 11118.420898 11947.664063 8532.6376953 10245.438477 8957.1474609
          9383.3369141 11958.852539 11551.568359 9811.3105469 11116.041016 11968.724609
          10677.743164 11552.586914 10241.023438 11976.899414 8956.4960938 12327.270508
          12331.609375 11112.143555 12344.318359 9380.875 11983.003906 10672.779297
          11551.568359 12360.192383 9807.4160156 12375.553711 10236.211914 11986.775391
          12389.56543 11106.944336 11548.579102 12401.921875 10667.176758 11988.044922
          9380.0234375 9804.2470703 12412.155273 11543.705078 12743.9375 10231.232422
          11100.682617 12749.330078 12765.176758 11986.775391 12419.822266 12785.026367
          10661.063477 12804.244141 12424.569336 11537.179688 12821.758789 11983.003906
          9803.1513672 11093.604492 12837.198242 10227.189453 12426.134766 12849.994141
          10654.736328 11976.899414 11529.307617 13158.794922 12424.569336 13165.485352
          12859.604492 13185.204102 11085.871094 13209.974609 10225.792969 13233.972656
          11968.724609 12865.517578 11520.395508 12419.822266 13255.831055 10649.613281
          13275.088867 12867.463867 11077.870117 11958.852539 13291.043945 12412.155273
          11510.648438 12865.517578 13571.495117 13303.000977 13579.776367 10647.84668
          13604.267578 13635.124023 12401.921875 11071.40918 13665.041992 11947.664063
          13310.296875 12859.604492 13692.282227 11500.566406 13716.25293 13312.761719
          12389.56543 12849.994141 13736.074219 11935.413086 11069.185547 13310.296875
          13750.847656 13981.625977 11492.449219 13991.860352 14022.223633 12837.198242
          12375.553711 14060.591797 13303.000977 13759.871094 14097.833984 11922.746094
          14131.71875 13763.011719 12821.758789 14161.49707 11489.662109 13291.043945
          12360.192383 14186.068359 11912.576172 13759.871094 14204.329102 12804.244141
          14388.714844 14401.336914 13275.088867 14438.910156 12344.318359 14486.532227
          13750.847656 14215.613281 14532.798828 14574.863281 11909.094727 13255.831055
          14219.541992 12785.026367 14611.80957 13736.074219 12331.609375 14642.302734
          14215.613281 13233.972656 13716.25293 14665.038086 12765.176758 14792.209961
          14807.74707 14854.151367 14204.329102 14913.132813 14679.223633 14970.484375
          12327.270508 13692.282227 13209.974609 15022.613281 14684 14186.068359
          12749.330078 15068.445313 15106.370117 14679.223633 13665.041992 13185.204102
          14161.49707 15134.813477 15191.478516 15210.567383 15267.760742 12743.9375
          14665.038086 15340.652344 15152.470703 15411.608398 13635.124023 14131.71875
          15476.160156 13165.485352 14642.302734 15158.232422 15533.011719 15580.151367
          14097.833984 15152.470703 13604.267578 14611.80957 15615.552734 13158.794922
          15585.798828 15134.813477 15609.206055 15679.558594 15637.202148 15769.454102
          14060.591797 14574.863281 15857.133789 13579.776367 15937.044922 15106.370117
          15644.338867 16007.469727 14532.798828 14022.223633 15637.202148 16065.798828
          15068.445313 13571.495117 16109.389648 15615.552734 15974.351563 14486.532227
          16003.00293 16089.360352 16135.905273 15022.613281 13991.860352 16200.005859
          16308.21582 15580.151367 16145.064453 16407.023438 16494.035156 14438.910156
          14970.484375 13981.625977 16135.905273 15533.011719 16565.916016 16619.404297
          16109.389648 14913.132813 14401.336914 15476.160156 16356.204102 16391.203125
          16652.462891 16496.951172 16632.789063 16766.009766 16065.798828 16664.287109
          16887.859375 14854.151367 15411.608398 14388.714844 16995.228516 16652.462891
          16007.469727 17084.009766 17150.277344 15340.652344 14807.74707 16619.404297
          15937.044922 16730.28125 16772.925781 17192.150391 16902.025391 17068.191406
          16565.916016 17231.599609 15267.760742 17207.037109 14792.209961 17381.515625
          15857.133789 17514.355469 16494.035156 17192.150391 17624.876953 15210.567383
          15769.454102 17707.984375 17150.277344 16407.023438 17760.636719 17095.34375
          17147.154297 17304.197266 17506.585938 17084.009766 15679.558594 15191.478516
          17706.384766 16308.21582 17778.90625 17890.947266 18056.076172 16995.228516
          17760.636719 18194.412109 15609.206055 16200.005859 17707.984375 18298.707031
          16887.859375 18363.404297 17449.945313 17512.720703 16089.360352 17703.023438
          17624.876953 15585.798828 17948.527344 16766.009766 18192.548828 18385.839844
          18420.416016 17514.355469 18625.974609 18363.404297 16003.00293 16632.789063
          18798.873047 17381.515625 18298.707031 18928.716797 15974.351563 19007.466797
          16496.951172 17792.386719 18194.412109 17868.25 18097.878906 17231.599609
          18394.509766 19035.511719 18692.353516 18973.769531 18056.076172 16391.203125
          19228.945313 19007.466797 17068.191406 19444.855469 17890.947266 18928.716797
          19606.759766 16356.204102 16902.025391 19704.96875 18798.873047 18120.525391
          17706.384766 18211.875 18487.320313 18843.5625 19740.099609 19205.570313
          18625.974609 19551.876953 16772.925781 19704.96875 17506.585938 19869.001953
          20141.117188 18420.416016 19606.759766 16730.28125 20347.257813 17304.197266
          20474.699219 19444.855469 18192.548828 18431.441406 18540.740234 18867.957031
          19291.265625 20517.736328 19728.023438 17147.154297 19228.945313 20154.15625
          17948.527344 20474.699219 20552.591797 18973.769531 20900.712891 20347.257813
          17095.34375 17703.023438 21170.021484 20141.117188 18692.353516 21337.720703
          18720.988281 18850.449219 19233.513672 21390.220703 19729.787109 17512.720703
          20255.037109 19869.001953 18394.509766 20784.269531 21337.720703 21292.242188
          19551.876953 17449.945313 21742.595703 21170.021484 18097.878906 22098.503906
          19205.570313 20900.712891 22314.972656 18983.289063 19134.736328 17868.25
          19574.669922 22381.261719 20149.609375 20552.591797 20783.195313 18843.5625
          21448.292969 22314.972656 22103.597656 17792.386719 20154.15625 22690.685547
          18487.320313 22098.503906 23160.349609 19728.023438 21742.595703 23430.056641
          18211.875 19210.007813 19385.566406 19877.980469 23506.019531 21292.242188
          20533.080078 19291.265625 21292.558594 22131.205078 23430.056641 18120.525391
          22984.746094 20784.269531 18867.957031 23760.976563 23160.349609 24386.292969
          20255.037109 22690.685547 24736.896484 18540.740234 19386.896484 19591.845703
          24841.902344 22103.597656 20109.859375 19729.787109 20830.169922 21729.197266
          24736.896484 18431.441406 22813.355469 21448.292969 23990.382813 19233.513672
          24386.292969 25016.726563 25789.511719 20783.195313 23760.976563 18850.449219
          26234.697266 20149.609375 19487.529297 22984.746094 19700.064453 26379.478516
          20216.695313 20987.166016 22023.101563 18720.988281 26234.697266 23391.570313
          22131.205078 19574.669922 25123.613281 25789.511719 26485.755859 21292.558594
          27332.193359 25016.726563 19134.736328 27833.460938 20533.080078 23990.382813
          27984.460938 18983.289063 27833.460938 22813.355469 19877.980469 27332.193359
          21729.197266 19385.566406 26485.755859 20830.169922 25123.613281 19210.007813
          20109.859375 23391.570313 22023.101563 19591.845703 20987.166016 19386.896484
          20216.695313 19700.064453 19487.529297
        </DataArray>
        <DataArray type="Float32" Name="VELOCITY" NumberOfComponents="3" ComponentName0="X-VELOCITY" ComponentName1="Y-VELOCITY" ComponentName2="Z-VELOCITY" format="ascii" RangeMin="0" RangeMax="84.225440979">
          0 0 0 0 0 0
          9.2763433456 0.010583481751 0 9.553440094 0.0090516107157 0
          22.952037811 -0.003506152425 0 0 0 0
          9.5796232224 0.0097268726677 0 22.924716949 0.0056235864758 0
          22.920557022 0.0049540381879 0 34.150043488 0.0028949507978 0
          0 0 0 9.5706319809 0.0074333664961 0
          34.13710022 -0.00040182532393 0 34.130687714 -0.001200444065 0
          22.921157837 0.0034931020346 0 43.88722229 0.002181680873 0
          0 0 0 9.5588121414 0.0056915474124 0
          43.881404877 -0.00013823156769 0 34.12720108 -0.0011658286676 0
          22.923082352 0.002804257907 0 43.878379822 -0.00088349648286 0
          34.124740601 -0.00079153187107 0 52.095470428 0.0018596942537 0
          0 0 0 43.877216339 -0.00082445470616 0
          52.093421936 0.00039263154031 0 9.5479650497 0.0046995049343 0
          22.925483704 0.0025972137228 0 52.09179306 -0.00031852655229 0
          43.876873016 -0.00047900754726 0 34.122714996 -0.00031838001451 0
          52.09072113 -0.00043272683979 0 0 0 0
          58.020946503 0.0016763472231 0 58.020355225 0.00083722092677 0
          9.5382890701 0.0041227438487 0 58.019794464 0.00029216546682 0
          22.927967072 0.0025768808555 0 52.090011597 -0.00026238322607 0
          43.876880646 -7.049186388e-005 0 34.12096405 0.0001451290882 0
          58.019416809 9.6806965303e-005 0 0 0 0
          59.607387543 0.0012466666522 0 52.089508057 1.073900421e-005 0
          9.5296907425 0.0037402617745 0 59.607376099 0.00075947737787 0
          58.019241333 0.00012356822845 0 43.877056122 0.00032418069895 0
          22.930335999 0.0026073788758 0 59.607303619 0.0003593286965 0
          34.119422913 0.00056199822575 0 59.607219696 0.00015081191668 0
          58.01922226 0.00025769634522 0 52.089141846 0.00030761703965 0
          63.311882019 0.00082933413796 0 0 0 0
          59.607200623 9.9086872069e-005 0 9.5220813751 0.0034480649047 0
          63.312080383 0.00054289749824 0 43.877311707 0.00068300910061 0
          22.932500839 0.002643546788 0 63.312187195 0.00027691182913 0
          58.019329071 0.00043549001566 0 63.312202454 0.00011281223124 0
          34.118068695 0.00092936208239 0 52.088874817 0.00059724127641 0
          59.607273102 0.00014098618703 0 63.312194824 4.5466338634e-005 0
          43.877613068 0.0010057614418 0 75.323921204 0.00042655112338 0
          0 0 0 9.515378952 0.0032050500158 0
          75.324295044 0.00028115572059 0 59.607429504 0.0002348722046 0
          22.934431076 0.0026797112077 0 58.019527435 0.00062805670314 0
          75.324523926 0.0001447671093 0 63.312202454 4.5306052925e-005 0
          52.088691711 0.0008713985444 0 34.116882324 0.0012597368332 0
          75.324615479 6.1557242589e-005 0 43.877933502 0.0013026376255 0
          75.324638367 2.6139143301e-005 0 59.607650757 0.00036213791464 0
          83.950164795 -3.8898602357e-014 0 63.312244415 9.3227696198e-005 0
          0 0 0 58.019786835 0.00082681939239 0
          9.5094995499 0.0029993657954 0 83.950653076 -1.1249663107e-014 0
          22.93611908 0.00272588199 0 83.950927734 2.0918484908e-014 0
          52.088573456 0.0011340944329 0 75.324630737 2.6877629352e-005 0
          34.115840912 0.0015723530669 0 83.951065063 5.0270124706e-014 0
          63.312320709 0.00018039481074 0 59.607925415 0.00051549734781 0
          83.951118469 7.8415491331e-014 0 43.878261566 0.0015893677482 0
          58.020088196 0.0010320703732 0 75.324630737 5.7456367358e-005 0
          0 0 0 75.323921204 -0.00042655112338 0
          9.504365921 0.0028316227254 0 75.324295044 -0.00028115572059 0
          22.937580109 0.0027977854479 0 52.088516235 0.0013951297151 0
          75.324523926 -0.0001447671093 0 83.951141357 8.4627542875e-014 0
          63.312438965 0.00029484910192 0 75.324615479 -6.1557242589e-005 0
          59.60823822 0.00068528583506 0 34.114936829 0.0018892112421 0
          75.324661255 0.00011127833568 0 83.951179504 7.9455112466e-014 0
          58.020423889 0.0012442070292 0 75.324638367 -2.6139143301e-005 0
          43.878582001 0.0018844049191 0 63.311882019 -0.00082933413796 0
          0 0 0 63.312080383 -0.00054289749824 0
          63.312606812 0.00041374340071 0 9.4999055862 0.0027071789373 0
          75.324737549 0.00017371492868 0 52.088508606 0.0016658920795 0
          75.324630737 -2.6877629352e-005 0 63.312187195 -0.00027691182913 0
          22.938829422 0.0029129376635 0 59.608596802 0.00085563922767 0
          83.951271057 6.7262926999e-014 0 63.312202454 -0.00011281223124 0
          34.114154816 0.0022334647365 0 58.020793915 0.0014624162577 0
          75.324630737 -5.7456367358e-005 0 63.312194824 -4.5466338634e-005 0
          43.878898621 0.002207507845 0 75.324882507 0.00022583415557 0
          63.312850952 0.00051573524252 0 83.951423645 5.8151047996e-014 0
          59.607387543 -0.0012466666522 0 0 0 0
          63.312202454 -4.5306052925e-005 0 52.088562012 0.0019588014111 0
          59.609020233 0.001017857343 0 59.607376099 -0.00075947737787 0
          9.4960546494 0.0026328959502 0 75.324661255 -0.00011127833568 0
          22.939891815 0.0030893692747 0 59.607303619 -0.0003593286965 0
          59.607219696 -0.00015081191668 0 34.113487244 0.0026290456299 0
          63.312244415 -9.3227696198e-005 0 58.021209717 0.001692749327 0
          83.951629639 4.1225164694e-014 0 75.325080872 0.00026226558839 0
          63.313163757 0.00060769915581 0 43.879219055 0.0025796720292 0
          75.324737549 -0.00017371492868 0 59.607200623 -9.9086872069e-005 0
          59.609508514 0.0011903090635 0 63.312320709 -0.00018039481074 0
          52.088676453 0.0022902586497 0 59.607273102 -0.00014098618703 0
          58.020946503 -0.0016763472231 0 0 0 0
          9.4927558899 0.0026159761474 0 58.020355225 -0.00083722092677 0
          83.951858521 2.2634350042e-014 0 58.019794464 -0.00029216546682 0
          22.940790176 0.003345499048 0 75.324882507 -0.00022583415557 0
          75.325325012 0.0003062596661 0 58.019416809 -9.6806965303e-005 0
          59.607429504 -0.0002348722046 0 34.112934113 0.0031008862425 0
          58.021678925 0.00195737998 0 63.312438965 -0.00029484910192 0
          63.313522339 0.00073516124394 0 58.019241333 -0.00012356822845 0
          43.879550934 0.0030238032341 0 59.610031128 0.0014184791362 0
          59.607650757 -0.00036213791464 0 75.325080872 -0.00026226558839 0
          52.088863373 0.0026832269505 0 58.01922226 -0.00025769634522 0
          83.952133179 -2.6617453443e-015 0 63.312606812 -0.00041374340071 0
          52.095470428 -0.0018596942537 0 0 0 0
          75.3256073 0.00039678235771 0 9.4899616241 0.0026636957191 0
          52.093421936 -0.00039263154031 0 22.941549301 0.003700460773 0
          52.09179306 0.00031852655229 0 58.019329071 -0.00043549001566 0
          58.022190094 0.0022909569088 0 59.607925415 -0.00051549734781 0
          63.313911438 0.00094796693884 0 52.09072113 0.00043272683979 0
          34.112480164 0.0036753134336 0 52.090011597 0.00026238322607 0
          43.879905701 0.0035650769714 0 75.325325012 -0.0003062596661 0
          63.312850952 -0.00051573524252 0 83.952484131 -2.8086628279e-014 0
          59.610565186 0.001739789499 0 58.019527435 -0.00062805670314 0
          59.60823822 -0.00068528583506 0 52.089118958 0.0031649430748 0
          52.089508057 -1.073900421e-005 0 75.325965881 0.00054511788767 0
          43.88722229 -0.002181680873 0 0 0 0
          43.881404877 0.00013823156769 0 9.4876337051 0.0027835040819 0
          43.878379822 0.00088349648286 0 58.019786835 -0.00082681939239 0
          63.314346313 0.0012376023224 0 22.942193985 0.0041746250354 0
          58.022716522 0.0027200952172 0 52.089141846 -0.00030761703965 0
          63.313163757 -0.00060769915581 0 43.877216339 0.00082445470616 0
          34.112136841 0.0043805525638 0 75.3256073 -0.00039678235771 0
          59.608596802 -0.00085563922767 0 83.952987671 -5.4454745292e-014 0
          43.8802948 0.0042307139374 0 43.876873016 0.00047900754726 0
          59.611122131 0.0021383345593 0 52.088874817 -0.00059724127641 0
          58.020088196 -0.0010320703732 0 75.326477051 0.00070141238393 0
          52.089443207 0.0037604051176 0 43.876880646 7.049186388e-005 0
          63.313522339 -0.00073516124394 0 63.314903259 0.0015160643961 0
          0 0 0 52.088691711 -0.0008713985444 0
          34.150043488 -0.0028949507978 0 75.325965881 -0.00054511788767 0
          59.609020233 -0.001017857343 0 34.13710022 0.00040182532393 0
          9.485742569 0.0029832767323 0 43.877056122 -0.00032418069895 0
          58.023288727 0.0032436614856 0 34.130687714 0.001200444065 0
          22.942747116 0.0047903130762 0 58.020423889 -0.0012442070292 0
          83.953643799 -6.9739522588e-014 0 34.11190033 0.0052476655692 0
          34.12720108 0.0011658286676 0 43.877311707 -0.00068300910061 0
          34.124740601 0.00079153187107 0 43.880729675 0.0050502885133 0
          59.611785889 0.0025467991363 0 52.088573456 -0.0011340944329 0
          75.327156067 0.00078729970846 0 59.609508514 -0.0011903090635 0
          63.313911438 -0.00094796693884 0 34.122714996 0.00031838001451 0
          52.089855194 0.0044884481467 0 58.020793915 -0.0014624162577 0
          75.326477051 -0.00070141238393 0 63.315677643 0.001697093714 0
          43.877613068 -0.0010057614418 0 0 0 0
          22.952037811 0.003506152425 0 34.12096405 -0.0001451290882 0
          9.4842710495 0.0032716111746 0 58.023963928 0.0038411468267 0
          52.088516235 -0.0013951297151 0 22.924716949 -0.0056235864758 0
          83.954376221 -9.7565571345e-014 0 22.920557022 -0.0049540381879 0
          22.943231583 0.0055726678111 0 34.111778259 0.0063121588901 0
          22.921157837 -0.0034931020346 0 43.877933502 -0.0013026376255 0
          75.327949524 0.00079602276674 0 59.610031128 -0.0014184791362 0
          59.612674713 0.00292535685 0 34.119422913 -0.00056199822575 0
          63.314346313 -0.0012376023224 0 22.923082352 -0.002804257907 0
          58.021209717 -0.001692749327 0 43.88123703 0.0060573625378 0
          75.327156067 -0.00078729970846 0 52.088508606 -0.0016658920795 0
          52.090393066 0.0053662601858 0 22.925483704 -0.0025972137228 0
          63.316669464 0.0018367097946 0 34.118068695 -0.00092936208239 0
          43.878261566 -0.0015893677482 0 83.955078125 -1.0580677502e-013 0
          22.927967072 -0.0025768808555 0 58.024841309 0.0045145787299 0
          9.2763433456 -0.010583481751 0 0 0 0
          9.553440094 -0.0090516107157 0 9.4832143784 0.0036580115557 0
          59.610565186 -0.001739789499 0 22.943675995 0.0065504638478 0
          9.5796232224 -0.0097268726677 0 58.021678925 -0.00195737998 0
          52.088562012 -0.0019588014111 0 63.314903259 -0.0015160643961 0
          34.116882324 -0.0012597368332 0 9.5706319809 -0.0074333664961 0
          34.111782074 0.0076156305149 0 75.328773499 0.00086341093993 0
          22.930335999 -0.0026073788758 0 59.613807678 0.0033593140543 0
          75.327949524 -0.00079602276674 0 9.5588121414 -0.0056915474124 0
          43.878582001 -0.0018844049191 0 43.881835938 0.0072906869464 0
          52.091114044 0.006419826299 0 9.5479650497 -0.0046995049343 0
          63.317745209 0.0021721834783 0 22.932500839 -0.002643546788 0
          34.115840912 -0.0015723530669 0 83.955795288 -1.011228319e-013 0
          58.022190094 -0.0022909569088 0 59.611122131 -0.0021383345593 0
          52.088676453 -0.0022902586497 0 58.025951385 0.0053291851655 0
          9.5382890701 -0.0041227438487 0 63.315677643 -0.001697093714 0
          0 0 0 43.878898621 -0.002207507845 0
          0 0 0 0 0 0
          9.482583046 0.0041528036818 0 0 0 0
          22.944107056 0.0077565168031 0 22.934431076 -0.0026797112077 0
          75.32963562 0.001182573149 0 0 0 0
          34.111927032 0.009206045419 0 9.5296907425 -0.0037402617745 0
          75.328773499 -0.00086341093993 0 59.615047455 0.0040513286367 0
          34.114936829 -0.0018892112421 0 0 0 0
          43.882568359 0.0087926816195 0 58.022716522 -0.0027200952172 0
          52.088863373 -0.0026832269505 0 22.93611908 -0.00272588199 0
          83.956817627 -8.2795092126e-014 0 9.5220813751 -0.0034480649047 0
          52.092060089 0.0076925023459 0 63.318782806 0.0029267244972 0
          43.879219055 -0.0025796720292 0 59.611785889 -0.0025467991363 0
          0 0 0 63.316669464 -0.0018367097946 0
          34.114154816 -0.0022334647365 0 0 0 0
          58.027210236 0.0064016319811 0 0 0 0
          9.4824056625 0.0047667701729 0 9.515378952 -0.0032050500158 0
          75.330764771 0.0017690104432 0 22.944553375 0.0092276399955 0
          22.937580109 -0.0027977854479 0 75.32963562 -0.001182573149 0
          59.616218567 0.0051455223002 0 0 0 0
          52.089118958 -0.0031649430748 0 34.112239838 0.011136317626 0
          58.023288727 -0.0032436614856 0 43.879550934 -0.0030238032341 0
          43.883480072 0.010608348995 0 59.612674713 -0.00292535685 0
          34.113487244 -0.0026290456299 0 83.958427429 -5.7612463791e-014 0
          9.5094995499 -0.0029993657954 0 0 0 0
          63.319900513 0.0039890692569 0 52.093223572 0.0092474967241 0
          22.938829422 -0.0029129376635 0 63.317745209 -0.0021721834783 0
          58.028507233 0.0078206341714 0 75.332443237 0.002310797805 0
          0 0 0 52.089443207 -0.0037604051176 0
          43.879905701 -0.0035650769714 0 75.330764771 -0.0017690104432 0
          9.504365921 -0.0028316227254 0 0 0 0
          9.4827289581 0.0055106850341 0 34.112934113 -0.0031008862425 0
          58.023963928 -0.0038411468267 0 22.945055008 0.011004501954 0
          59.617393494 0.0065096965991 0 59.613807678 -0.0033593140543 0
          34.112751007 0.013463823125 0 22.939891815 -0.0030893692747 0
          43.884616852 0.012792606838 0 83.960586548 -3.5270888993e-014 0
          0 0 0 9.4999055862 -0.0027071789373 0