<?xml version="1.0"?>
<VTKFile type="PolyData" version="0.1" byte_order="LittleEndian" compressor="vtkZLibDataCompressor">
  <PolyData>
    <Piece NumberOfPoints="1071" NumberOfVerts="0" NumberOfLines="0" NumberOfStrips="0" NumberOfPolys="2000">
      <PointData>
        <DataArray type="Float32" Name="PRESSURE" format="ascii" RangeMin="0" RangeMax="34423.886719">
          0 657.19561768 0 653.24310303 0 1295.8935547
          1291.5025635 643.93469238 1284.5802002 0 1933.0904541 1929.0222168
          639.80175781 1280.6424561 1924.1920166 0 2571.4187012 2567.6157227
          639.81518555 1921.2028809 2563.932373 1280.7541504 2561.6674805 0
          3211.0783691 1921.8543701 640.38244629 3207.3327637 3204.1901855 1281.4705811
          2562.9875488 3202.338623 1922.8065186 3851.9465332 0 640.76062012
          3848.0827637 1282.0151367 3845.1130371 2564.2663574 3204.2883301 3843.4260254
          1923.5411377 4493.9155273 0 3205.9057617 4489.8085938 641.2364502
          2565.2644043 3845.9125977 4486.7709961 1282.7086182 4485.0600586 1924.3881836
          3207.208252 3847.8283691 0 5136.9199219 2566.2712402 5132.4814453
          641.39532471 4487.980957 5129.203125 1282.99646 3849.4365234 1924.7884521
          5127.3222656 4490.1313477 3208.3862305 2566.7890625 5130.5766602 0
          5780.9208984 5776.0874023 641.61578369 3850.7814941 5772.4326172 4492.0195313
          1283.3253174 3209.0300293 5132.8925781 5770.2641602 1925.1917725 5773.7558594
          2567.2592773 4493.512207 0 3851.5524902 6425.8920898 5135.0195313
          6420.6176758 641.70715332 6416.472168 1283.4508057 5776.168457 3209.5671387
          6413.9194336 1925.3358154 4494.4018555 5136.6303711 2567.4189453 6417.5556641
          5778.4848633 3852.1557617 7071.8100586 0 7066.0620117 641.61578369
          7061.3271484 6419.9975586 1283.3253174 3209.7441406 5137.6220703 1925.1917725
          5780.1787109 7058.3076172 4495.0664063 3852.3513184 6422.4511719 2567.2592773
          7061.996582 0 7718.6474609 641.39532471 5781.25 7712.4047852
          5138.3378906 7064.4047852 3209.5671387 1282.99646 7706.9951172 6424.1904297
          4495.2807617 1924.7884521 7703.4389648 7066.940918 3852.1557617 2566.7890625
          7707.0883789 5782.0048828 6425.315918 5138.5698242 0 8366.3681641
          3209.0300293 7709.4013672 7068.6855469 641.2364502 8359.6220703 4495.0664063
          8353.4628906 1282.7086182 1924.3881836 8349.3115234 3851.5524902 7711.9638672
          5782.2509766 6426.0942383 7069.8378906 8352.8291016 5138.3378906 2566.2712402
          7713.6748047 4494.4018555 8354.9873047 3208.3862305 0 9014.9248047
          9007.6796875 640.76062012 6426.3505859 1282.0151367 9000.7089844 5782.0048828
          7070.6235352 1923.5411377 3850.7814941 8995.9140625 8357.5185547 5137.6220703
          7714.824707 2565.2644043 8999.2060547 8359.1552734 4493.512207 6426.0942383
          9001.1503906 3207.208252 7070.8847656 5781.25 0 9664.2597656
          7715.5996094 9656.5283203 640.38244629 9648.7001953 1281.4705811 3849.4365234
          9003.5917969 5136.6303711 8360.2734375 1922.8065186 9643.2226563 2564.2663574
          9646.1953125 7070.6235352 6425.315918 7715.8608398 9005.1152344 4492.0195313
          5780.1787109 9647.8681641 3205.9057617 8361.0195313 0 10314.298828
          639.81518555 10306.107422 1280.7541504 5135.0195313 9006.1699219 10297.390625
          9650.1591797 3847.8283691 7069.8378906 1921.8543701 10291.202148 7715.5996094
          6424.1904297 8361.2744141 10293.762695 2562.9875488 9651.5292969 4490.1313477
          5778.4848633 9006.8681641 10295.106445 3204.2883301 7714.824707 9652.4902344
          10964.956055 5132.8925781 0 8361.0195313 7068.6855469 639.80175781
          10956.341797 3845.9125977 10297.185547 1280.6424561 10946.723633 6422.4511719
          9007.1123047 10939.804688 1921.2028809 4487.980957 2561.6674805 10941.861328
          10298.362305 5776.168457 9653.1230469 7713.6748047 8360.2734375 3202.338623
          10942.819336 7066.940918 9006.8681641 10299.199219 5130.5766602 11616.132813
          0 3843.4260254 11607.141602 10944.625 6419.9975586 643.93469238
          9653.3486328 1284.5802002 11596.628906 11588.970703 1924.1920166 5773.7558594
          10299.748047 8359.1552734 10945.569336 4485.0600586 9006.1699219 2563.932373
          7711.9638672 11590.43457 9653.1230469 7064.4047852 11590.949219 3204.1901855
          10946.249023 5127.3222656 6417.5556641 10299.948242 3845.1130371 11592.418945
          0 12267.71582 653.24310303 12258.40625 9005.1152344 12247.025391
          1291.5025635 8357.5185547 7709.4013672 9652.4902344 5770.2641602 1929.0222168
          12238.625977 10946.695313 4486.7709961 11593.088867 10299.748047 2567.6157227
          7061.996582 12239.414063 12239.425781 3207.3327637 11593.582031 5129.203125
          6413.9194336 10946.864258 9003.5917969 9651.5292969 8354.9873047 12240.49707
          3848.0827637 10299.199219 12919.583984 7707.0883789 0 657.19561768
          12910.021484 1295.8935547 12897.819336 5772.4326172 11593.90625 1933.0904541
          12888.6875 4489.8085938 10946.695313 12240.852539 7058.3076172 2571.4187012
          12888.716797 9650.1591797 9001.1503906 6416.472168 11594.036133 5132.4814453
          12888.167969 12241.124023 8352.8291016 10298.362305 3211.0783691 10946.249023
          7703.4389648 3851.9465332 12888.777344 13571.608398 13561.865234 5776.0874023
          12241.303711 13548.910156 7061.3271484 11593.90625 12888.775391 4493.9155273
          9647.8681641 13539.058594 10297.185547 8999.2060547 13538.25293 10945.569336
          8349.3115234 12241.389648 6420.6176758 5136.9199219 12888.791016 13537.083008
          7706.9951172 11593.582031 13537.166992 12888.807617 5780.9208984 10295.106445
          9646.1953125 12241.303711 7066.0620117 14223.651367 14213.806641 8995.9140625
          10944.625 14200.182617 13536.765625 11593.088867 14189.630859 8353.4628906
          14187.917969 12888.84082 6425.8920898 7712.4047852 13536.491211 12241.124023
          14186.064453 10293.762695 9643.2226563 10942.819336 14185.560547 11592.418945
          9000.7089844 12888.807617 7071.8100586 13536.326172 14875.571289 8359.6220703
          12240.852539 14865.708984 14851.516602 14184.716797 14840.287109 13536.298828
          7718.6474609 12888.791016 14837.59668 10941.861328 10291.202148 14184.123047
          9648.7001953 11590.949219 14834.996094 12240.49707 9007.6796875 13536.326172
          14833.84082 14183.759766 8366.3681641 12888.775391 15527.220703 15517.428711
          14832.511719 10939.804688 15502.78125 11590.43457 10297.390625 14183.662109
          15490.895508 13536.491211 12239.425781 9656.5283203 15487.161133 14831.569336
          12888.777344 9014.9248047 15483.744141 14183.759766 13536.765625 14830.989258
          15481.875 10946.723633 11588.970703 12239.414063 10306.107422 15480.015625
          16178.446289 9664.2597656 12888.167969 16168.811523 14184.123047 14830.810547
          16153.834961 16141.31543 13537.166992 15478.692383 16136.467773 11596.628906
          14830.989258 16132.165039 12238.625977 10956.341797 14184.716797 12888.716797
          10314.298828 15477.866211 16129.515625 13537.083008 14831.569336 16127.079102
          16829.083984 15477.601563 16819.697266 14185.560547 16804.525391 16791.386719
          12247.025391 11607.141602 16125.331055 12888.6875 10964.956055 16785.359375
          13538.25293 15477.866211 14832.511719 16780.097656 16124.230469 14186.064453
          16776.603516 15478.692383 12258.40625 12897.819336 11616.132813 16773.539063
          16123.876953 14833.84082 17478.951172 13539.058594 17469.902344 17454.675781
          17440.9375 16771.324219 14187.917969 17433.660156 15480.015625 16124.230469
          17427.359375 14834.996094 16769.927734 12910.021484 12267.71582 13548.910156
          17422.960938 16125.331055 15481.875 14189.630859 16769.480469 17419.224609
          18127.839844 18119.222656 14837.59668 18104.09375 17416.513672 18089.763672
          16127.079102 16769.927734 18081.167969 12919.583984 15483.744141 13561.865234
          14200.182617 18073.753906 17414.824219 14840.287109 16771.324219 18068.392578
          16129.515625 17414.265625 15487.161133 18063.955078 13571.608398 18775.498047
          18767.410156 16773.539063 18752.541016 14213.806641 18060.751953 16132.165039
          17414.824219 18737.636719 14851.516602 18727.65625 15490.895508 18058.773438
          18719.052734 16776.603516 17416.513672 18712.689453 16136.467773 18058.082031
          14223.651367 14865.708984 18707.537109 17419.224609 19421.615234 15502.78125
          16780.097656 19414.160156 19399.736328 18058.773438 18703.851563 19384.28125
          16141.31543 19372.855469 18701.5625 17422.960938 19363.007813 18060.751953
          14875.571289 16785.359375 19355.619141 15517.428711 18700.728516 19349.744141
          16153.834961 18063.955078 17427.359375 20065.792969 18701.5625 20059.091797
          19345.568359 20045.332031 16791.386719 20029.373047 15527.220703 20016.46875
          18068.392578 19342.919922 17433.660156 18703.851563 20005.34375 16168.811523
          19996.925781 19341.962891 16804.525391 18073.753906 19990.332031 18707.537109
          17440.9375 19342.919922 20707.517578 19985.623047 20701.712891 16178.446289
          20688.888672 20672.515625 18712.689453 16819.697266 20658.134766 18081.167969
          19982.599609 19345.568359 20645.742188 17454.675781 20636.333984 19981.5625
          18719.052734 19349.744141 20629.050781 18089.763672 16829.083984 19982.599609
          20623.818359 21346.123047 17469.902344 21341.388672 21329.849609 19355.619141
          18727.65625 21313.220703 19985.623047 20620.507813 21297.427734 18104.09375
          21283.826172 20619.402344 19363.007813 21273.537109 17478.951172 19990.332031
          18737.636719 21265.697266 18119.222656 20620.507813 21260.115234 19372.855469
          21980.744141 21977.296875 19996.925781 21967.501953 18752.541016 21950.875
          20623.818359 21256.707031 21933.804688 21919.150391 18127.839844 20005.34375
          21255.474609 19384.28125 21908.21875 20629.050781 18767.410156 21900.125
          21256.707031 20016.46875 20636.333984 21894.556641 19399.736328 22610.255859
          22608.380859 22600.9375 21260.115234 22584.708984 21891.203125 22566.630859
          18775.498047 20645.742188 20029.373047 22551.242188 21889.773438 21265.697266
          19414.160156 22540.091797 22532.207031 21891.203125 20658.134766 20045.332031
          21273.537109 22527.052734 23233.220703 23233.283203 23229.007813 19421.615234
          21894.556641 23213.777344 22523.761719 23195.191406 20672.515625 21283.826172
          23179.648438 20059.091797 21900.125 22522.207031 23168.914063 23161.783203
          21297.427734 22523.761719 20688.888672 21908.21875 23157.306641 20065.792969
          23847.806641 22527.052734 23850.283203 23850.255859 23154.142578 23836.929688
          21313.220703 21919.150391 23818.660156 20701.712891 23803.869141 22532.207031
          23152.763672 23794.40625 21933.804688 21329.849609 23154.142578 23788.667969
          22540.091797 20707.517578 23785.207031 23157.306641 24451.697266 21950.875
          24457.201172 24462.832031 23782.716797 22551.242188 21341.388672 24452.685547
          24435.939453 23161.783203 23781.894531 24423.140625 24416.158203 21967.501953
          22566.630859 21346.123047 23782.716797 23168.914063 24412.916016 24411.476563
          23785.207031 22584.708984 21977.296875 23179.648438 25041.984375 25051.277344
          24410.845703 25064.341797 25059.058594 25045.443359 23788.667969 24410.771484
          25036.333984 22600.9375 23195.191406 21980.744141 25033.798828 24410.845703
          23794.40625 25035.167969 25037.832031 23213.777344 22608.380859 24411.476563
          23803.869141 25615.046875 25629.046875 25040.351563 25651.710938 25653.427734
          24412.916016 25645.136719 23229.007813 25040.984375 22610.255859 25642.328125
          23818.660156 25647.443359 24416.158203 25040.351563 25656.720703 23233.283203
          23836.929688 25666.230469 25037.832031 24423.140625 25672.599609 26166.412109
          26186.220703 26221.076172 26232.558594 25035.167969 23850.255859 23233.220703
          26232.888672 24435.939453 25674.060547 26240.552734 26257.828125 25033.798828
          25672.599609 26279.035156 23850.283203 24452.685547 25666.230469 26298.099609
          25036.333984 26308.898438 26690.654297 26717.546875 24462.832031 26767.605469
          25656.720703 23847.806641 26792.521484 25045.443359 26806.417969 26311.869141
          26830.486328 25647.443359 26865.357422 26308.898438 24457.201172 25059.058594
          26903.257813 25642.328125 26298.099609 26935.292969 24451.697266 26952.990234
          25064.341797 27181.234375 26279.035156 27216.585938 27285.058594 25645.136719
          27327.925781 26958.529297 27361.806641 27409.470703 26257.828125 25051.277344
          27468.955078 26952.990234 25653.427734 27530.955078 26240.552734 26935.292969
          27582.78125 25041.984375 25651.710938 27613.716797 26903.257813 27630.332031
          26232.888672 27675.341797 27764.939453 27830.308594 27622.785156 27891.253906
          26865.357422 27971.521484 25629.046875 27613.716797 26232.558594 28067.226563
          28165.878906 26830.486328 27582.78125 25615.046875 28250 26221.076172
          28303.9375 27530.955078 26806.417969 28028.732422 28083.962891 28195.638672
          28287.080078 28318.126953 28383.378906 26186.220703 27468.955078 28510.480469
          26792.521484 28303.9375 28661.886719 27409.470703 28815.542969 28250
          26166.412109 26767.605469 28949.265625 28165.878906 27361.806641 29036.498047
          28365.962891 28430.714844 28562.324219 29059.677734 28682.847656 26717.546875
          28826.765625 28067.226563 27327.925781 29023.087891 29036.498047 29258.886719
          27971.521484 26690.654297 29492.777344 28949.265625 27285.058594 29696.488281
          27891.253906 28815.542969 29826.513672 28630.9375 28702.195313 27216.585938
          28847.445313 29863.34375 29000.597656 28661.886719 29206.496094 27830.308594
          29498.708984 29826.513672 29860.554688 27181.234375 28510.480469 30216.355469
          27764.939453 29696.488281 30517.234375 28383.378906 29492.777344 30697.941406
          27675.341797 28813.287109 28883.521484 29030.464844 30745.054688 29258.886719
          29210.296875 28287.080078 29476.011719 29877.902344 30697.941406 27630.332031
          30425.416016 29023.087891 28195.638672 30991.050781 30517.234375 31439.902344
          28826.765625 30216.355469 31695.548828 28083.962891 28907.869141 28961.181641
          31768.058594 29860.554688 29081.320313 28682.847656 29259.595703 29551.294922
          31695.548828 28028.732422 30051.416016 29498.708984 30897.486328 28562.324219
          31439.902344 31887.427734 32567.210938 29206.496094 30991.050781 28430.714844
          32935.613281 29000.597656 28918.832031 30425.416016 28965.794922 33073.835938
          29068.951172 29247.972656 29575.292969 28365.962891 32935.613281 30201.859375
          29877.902344 28847.445313 31220.333984 32567.210938 32685.349609 29476.011719
          33762.945313 31887.427734 28702.195313 34281.261719 29210.296875 30897.486328
          34423.886719 28630.9375 34281.261719 30051.416016 29030.464844 33762.945313
          29551.294922 28883.521484 32685.349609 29259.595703 31220.333984 28813.287109
          29081.320313 30201.859375 29575.292969 28961.181641 29247.972656 28907.869141
          29068.951172 28965.794922 28918.832031
        </DataArray>
        <DataArray type="Float32" Name="VELOCITY" NumberOfComponents="3" ComponentName0="X-VELOCITY" ComponentName1="Y-VELOCITY" ComponentName2="Z-VELOCITY" format="ascii" RangeMin="0" RangeMax="97.612709045">
          0 0 0 0 0 0
          25.200321198 0.037789545953 0 24.737953186 -0.009987924248 0
          22.537679672 0.048321127892 0 0 0 0
          24.548770905 0.0077666072175 0 22.448530197 0.013730857521 0
          22.449924469 0.016118567437 0 41.940944672 0.031128602102 0
          0 0 0 24.394584656 0.025261135772 0
          41.901313782 0.0029396512546 0 41.866695404 -0.010257855058 0
          22.503551483 0.025459228083 0 48.168804169 0.052431341261 0
          0 0 0 24.235443115 0.038531910628 0
          48.151866913 0.035273116082 0 41.836704254 -0.013144685887 0
          22.584924698 0.033818043768 0 48.129730225 0.02607534267 0
          41.806777954 -0.013125440106 0 57.227313995 0.055818945169 0
          0 0 0 48.109477997 0.02322325483 0
          57.232933044 0.042340002954 0 24.062770844 0.049045704305 0
          22.685241699 0.040211033076 0 57.239341736 0.03219281882 0
          48.093135834 0.023637656122 0 41.773170471 -0.012731968425 0
          57.246852875 0.026337983087 0 0 0 0
          62.595287323 0.043534938246 0 62.602676392 0.035511776805 0
          23.873760223 0.058156441897 0 62.604633331 0.028473356739 0
          22.801773071 0.045182455331 0 57.255432129 0.023512545973 0
          48.081085205 0.025424415246 0 41.733509064 -0.012537668459 0
          62.603347778 0.024005154148 0 0 0 0
          64.048622131 0.034537471831 0 57.264446259 0.022470388561 0
          23.666812897 0.066679738462 0 64.061485291 0.028265291825 0
          62.600868225 0.02177635394 0 48.073387146 0.02775945887 0
          22.933897018 0.049319535494 0 64.074409485 0.022803427652 0
          41.68629837 -0.012526405044 0 64.087127686 0.018880857155 0
          62.598426819 0.021123677492 0 57.273132324 0.022437173873 0
          68.063659668 0.019381230697 0 0 0 0
          64.099853516 0.016416853294 0 23.440683365 0.075020886958 0
          68.073890686 0.01600105688 0 48.070098877 0.03032862395 0
          23.081579208 0.053009748459 0 68.081008911 0.012317340821 0
          62.596698761 0.021501041949 0 68.085845947 0.0095638316125 0
          41.630619049 -0.012547887862 0 57.280857086 0.02299460955 0
          64.112785339 0.015077622607 0 68.089279175 0.007745387964 0
          48.07131958 0.033021952957 0 80.123703003 0.0099166175351 0
          0 0 0 23.194417953 0.08332208544 0
          80.132827759 0.0086295595393 0 64.126022339 0.01453381218 0
          23.244779587 0.05646404624 0 62.596046448 0.022540835664 0
          80.139907837 0.0070548090152 0 68.091949463 0.0066951783374 0
          57.287136078 0.023931732401 0 41.565956116 -0.012450632639 0
          80.145446777 0.0057516889647 0 48.077144623 0.035798434168 0
          80.149925232 0.0048237345181 0 64.139579773 0.014533136971 0
          88.690368652 5.5967661332e-014 0 68.094291687 0.0062211412005 0
          0 0 0 62.596702576 0.024013888091 0
          22.927415848 0.091567106545 0 88.700057983 6.2818829728e-014 0
          23.423175812 0.059773273766 0 88.708244324 6.1661674302e-014 0
          57.291652679 0.025144392624 0 80.153755188 0.0042402180843 0
          41.492126465 -0.012115892954 0 88.71497345 5.5207371335e-014 0
          68.096580505 0.0061558261514 0 64.153457642 0.014898864552 0
          88.720550537 5.0658939934e-014 0 48.087627411 0.038630302995 0
          62.598812103 0.025776060298 0 80.15725708 0.0039322329685 0
          0 0 0 80.123703003 -0.0099166175351 0
          22.639505386 0.099646754563 0 80.132827759 -0.0086295595393 0
          23.616062164 0.062952518463 0 57.294208527 0.026576077566 0
          80.139907837 -0.0070548090152 0 88.725334167 5.3452518968e-014 0
          68.099014282 0.0063629504293 0 80.145446777 -0.0057516889647 0
          64.167655945 0.015505820513 0 41.409236908 -0.011463318951 0
          80.160644531 0.0038242978044 0 88.729652405 5.4275408088e-014 0
          62.602500916 0.027727300301 0 80.149925232 -0.0048237345181 0
          48.102767944 0.041481785476 0 68.063659668 -0.019381230697 0
          0 0 0 68.073890686 -0.01600105688 0
          68.101745605 0.0067347912118 0 22.330993652 0.10739892721 0
          80.164085388 0.0038457955234 0 57.294715881 0.028186039999 0
          80.153755188 -0.0042402180843 0 68.081008911 -0.012317340821 0
          23.822305679 0.065970674157 0 64.182182312 0.016263745725 0
          88.733757019 4.6759037614e-014 0 68.085845947 -0.0095638316125 0
          41.317672729 -0.010449324735 0 62.607849121 0.029790308326 0
          80.15725708 -0.0039322329685 0 68.089279175 -0.007745387964 0
          48.122467041 0.044303100556 0 80.167655945 0.0039421478286 0
          68.104858398 0.0072000222281 0 88.737800598 3.8741948695e-014 0
          64.048622131 -0.034537471831 0 0 0 0
          68.091949463 -0.0066951783374 0 57.29315567 0.029935164377 0
          64.197052002 0.017116807401 0 64.061485291 -0.028265291825 0
          22.002689362 0.11463452131 0 80.160644531 -0.0038242978044 0
          24.040348053 0.068769581616 0 64.074409485 -0.022803427652 0
          64.087127686 -0.018880857155 0 41.218063354 -0.0090638408437 0
          68.094291687 -0.0062211412005 0 62.61492157 0.031905189157 0
          88.741912842 3.3446603641e-014 0 80.171394348 0.0040885536 0
          68.108413696 0.0077344570309 0 48.146526337 0.04703155905 0
          80.164085388 -0.0038457955234 0 64.099853516 -0.016416853294 0
          64.212257385 0.01804526709 0 68.096580505 -0.0061558261514 0
          57.289581299 0.031782086939 0 64.112785339 -0.015077622607 0
          62.595287323 -0.043534938246 0 0 0 0
          21.655918121 0.12115593255 0 62.602676392 -0.035511776805 0
          88.746162415 2.2209620617e-014 0 62.604633331 -0.028473356739 0
          24.26824379 0.071276955307 0 80.167655945 -0.0039421478286 0
          80.175315857 0.0042908512987 0 62.603347778 -0.024005154148 0
          64.126022339 -0.01453381218 0 41.111270905 -0.0073264730163 0
          62.623718262 0.034027151763 0 68.099014282 -0.0063629504293 0
          68.112419128 0.0083480188623 0 62.600868225 -0.02177635394 0
          48.174640656 0.049595829099 0 64.227752686 0.019046677276 0
          64.139579773 -0.014533136971 0 80.171394348 -0.0040885536 0
          57.284088135 0.033682130277 0 62.598426819 -0.021123677492 0
          88.75063324 6.1001741615e-015 0 68.101745605 -0.0067347912118 0
          57.227313995 -0.055818945169 0 0 0 0
          80.179450989 0.0045587387867 0 21.292495728 0.12677176297 0
          57.232933044 -0.042340002954 0 24.503713608 0.073415875435 0
          57.239341736 -0.03219281882 0 62.596698761 -0.021501041949 0
          62.63419342 0.036114569753 0 64.153457642 -0.014898864552 0
          68.116905212 0.0090365307406 0 57.246852875 -0.026337983087 0
          40.99836731 -0.005281844642 0 57.255432129 -0.023512545973 0
          48.206401825 0.051921222359 0 80.175315857 -0.0042908512987 0
          68.104858398 -0.0072000222281 0 88.75541687 -1.607501499e-014 0
          64.243507385 0.020094932988 0 62.596046448 -0.022540835664 0
          64.167655945 -0.015505820513 0 57.276817322 0.035584453493 0
          57.264446259 -0.022470388561 0 80.183830261 0.0048652654514 0
          48.168804169 -0.052431341261 0 0 0 0
          48.151866913 -0.035273116082 0 20.914707184 0.13130933046 0
          48.129730225 -0.02607534267 0 62.596702576 -0.024013888091 0
          68.121910095 0.0097340196371 0 24.744228363 0.075112469494 0
          62.646263123 0.038109544665 0 57.273132324 -0.022437173873 0
          68.108413696 -0.0077344570309 0 48.109477997 -0.02322325483 0
          40.880580902 -0.0029934903141 0 80.179450989 -0.0045587387867 0
          64.182182312 -0.016263745725 0 88.760574341 -3.5642062218e-014 0
          48.241298676 0.053935494274 0 48.093135834 -0.023637656122 0
          64.259529114 0.021113077179 0 57.280857086 -0.02299460955 0
          62.598812103 -0.025776060298 0 80.188476563 0.0051385252737 0
          57.267936707 0.037429146469 0 48.081085205 -0.025424415246 0
          68.112419128 -0.0083480188623 0 68.127487183 0.010330842808 0
          0 0 0 57.287136078 -0.023931732401 0
          41.940944672 -0.031128602102 0 80.183830261 -0.0048652654514 0
          64.197052002 -0.017116807401 0 41.901313782 -0.0029396512546 0
          20.525247574 0.13462561369 0 48.073387146 -0.02775945887 0
          62.65984726 0.039931233972 0 41.866695404 0.010257855058 0
          24.98708725 0.076303169131 0 62.602500916 -0.027727300301 0
          88.766082764 -6.3720452255e-014 0 40.759262085 -0.00053578714142 0
          41.836704254 0.013144685887 0 48.070098877 -0.03032862395 0
          41.806777954 0.013125440106 0 48.278736115 0.055575720966 0
          64.275871277 0.022005746141 0 57.291652679 -0.025144392624 0
          80.193367004 0.0053196693771 0 64.212257385 -0.01804526709 0
          68.116905212 -0.0090365307406 0 41.773170471 0.012731968425 0
          57.257663727 0.039150502533 0 62.607849121 -0.029790308326 0
          80.188476563 -0.0051385252737 0 68.133666992 0.010776887648 0
          48.07131958 -0.033021952957 0 0 0 0
          22.537679672 -0.048321127892 0 41.733509064 0.012537668459 0
          20.127164841 0.13661648333 0 62.674850464 0.041500546038 0
          57.294208527 -0.026576077566 0 22.448530197 -0.013730857521 0
          88.771858215 -6.989116859e-014 0 22.449924469 -0.016118567437 0
          25.22952652 0.076941803098 0 40.63583374 0.0020159808919 0
          22.503551483 -0.025459228083 0 48.077144623 -0.035798434168 0
          80.198394775 0.0054491697811 0 64.227752686 -0.019046677276 0
          64.292533875 0.022745877504 0 41.68629837 0.012526405044 0
          68.121910095 -0.0097340196371 0 22.584924698 -0.033818043768 0
          62.61492157 -0.031905189157 0 48.318061829 0.056796062738 0
          80.193367004 -0.0053196693771 0 57.294715881 -0.028186039999 0
          57.246257782 0.040689140558 0 22.685241699 -0.040211033076 0
          68.140342712 0.011179027148 0 41.630619049 0.012547887862 0
          48.087627411 -0.038630302995 0 88.777832031 -5.0127582613e-014 0
          22.801773071 -0.045182455331 0 62.691127777 0.042785275728 0
          25.200321198 -0.037789545953 0 0 0 0
          24.737953186 0.009987924248 0 19.723775864 0.13722454011 0
          64.243507385 -0.020094932988 0 25.468803406 0.077006861567 0
          24.548770905 -0.0077666072175 0 62.623718262 -0.034027151763 0
          57.29315567 -0.029935164377 0 68.127487183 -0.010330842808 0
          41.565956116 0.012450632639 0 24.394584656 -0.025261135772 0
          40.511741638 0.004596286919 0 80.203468323 0.0056722615846 0
          22.933897018 -0.049319535494 0 64.309387207 0.023430030793 0
          80.198394775 -0.0054491697811 0 24.235443115 -0.038531910628 0
          48.102767944 -0.041481785476 0 48.358585358 0.057574417442 0
          57.233978271 0.042007878423 0 24.062770844 -0.049045704305 0
          68.147315979 0.011743264273 0 23.081579208 -0.053009748459 0
          41.492126465 0.012115892954 0 88.784111023 -3.396049853e-014 0
          62.63419342 -0.036114569753 0 64.259529114 -0.021113077179 0
          57.289581299 -0.031782086939 0 62.708423615 0.043822977692 0
          23.873760223 -0.058156441897 0 68.133666992 -0.010776887648 0
          0 0 0 48.122467041 -0.044303100556 0
          0 0 0 0 0 0
          19.31857872 0.13644491136 0 0 0 0
          25.70230484 0.076508745551 0 23.244779587 -0.05646404624 0
          80.208641052 0.006092381198 0 0 0 0
          40.388393402 0.007159344852 0 23.666812897 -0.066679738462 0
          80.203468323 -0.0056722615846 0 64.326194763 0.024202840403 0
          41.409236908 0.011463318951 0 0 0 0
          48.399604797 0.057917512953 0 62.646263123 -0.038109544665 0
          57.284088135 -0.033682130277 0 23.423175812 -0.059773273766 0
          88.790931702 -3.1431325912e-014 0 23.440683365 -0.075020886958 0
          57.221065521 0.04310393706 0 68.15448761 0.012530569918 0
          48.146526337 -0.04703155905 0 64.275871277 -0.022005746141 0
          0 0 0 68.140342712 -0.011179027148 0
          41.317672729 0.010449324735 0 0 0 0
          62.72637558 0.044684760273 0 0 0 0
          18.915166855 0.13432960212 0 23.194417953 -0.08332208544 0
          80.214096069 0.0065764132887 0 25.927610397 0.075497239828 0
          23.616062164 -0.062952518463 0 80.208641052 -0.006092381198 0
          64.342781067 0.025068569928 0 0 0 0
          57.276817322 -0.035584453493 0 40.267120361 0.0096886726096 0
          62.65984726 -0.039931233972 0 48.174640656 -0.049595829099 0
          48.440437317 0.05786895752 0 64.292533875 -0.022745877504 0
          41.218063354 0.0090638408437 0 88.798377991 -4.9879974554e-014 0
          22.927415848 -0.091567106545 0 0 0 0
          68.162010193 0.013250363991 0 57.207706451 0.044013291597 0
          23.822305679 -0.065970674157 0 68.147315979 -0.011743264273 0
          62.744663239 0.04539553076 0 80.219978333 0.0067714201286 0
          0 0 0 57.267936707 -0.037429146469 0
          48.206401825 -0.051921222359 0 80.214096069 -0.0065764132887 0
          22.639505386 -0.099646754563 0 0 0 0
          18.517124176 0.13099041581 0 41.111270905 0.0073264730163 0
          62.674850464 -0.041500546038 0 26.14257431 0.074069358408 0
          64.359275818 0.025781238452 0 64.309387207 -0.023430030793 0
          40.149139404 0.012208795175 0 24.040348053 -0.068769581616 0
          48.480419159 0.057524234056 0 88.806114197 -5.6165223297e-014 0
          0 0 0 22.330993652 -0.10739892721 0
          68.170219421 0.01343362499 0 68.15448761 -0.012530569918 0
          57.194084167 0.044801831245 0 48.241298676 -0.053935494274 0
          40.99836731 0.005281844642 0 57.257663727 -0.039150502533 0
          62.763168335 0.045885503292 0 62.691127777 -0.042785275728 0
          24.26824379 -0.071276955307 0 80.219978333 -0.0067714201286 0
          0 0 0 80.226081848 0.0064768907614 0