<?xml version="1.0"?>
<VTKFile type="PolyData" version="0.1" byte_order="LittleEndian" compressor="vtkZLibDataCompressor">
  <PolyData>
    <Piece NumberOfPoints="1071" NumberOfVerts="0" NumberOfLines="0" NumberOfStrips="0" NumberOfPolys="2000">
      <PointData>
        <DataArray type="Float32" Name="PRESSURE" format="ascii" RangeMin="-20664.513672" RangeMax="0">
          0 -406.83276367 0 -407.41998291 0 -816.86083984
          -816.40637207 -405.14413452 -813.85913086 0 -1228.2277832 -1227.2264404
          -406.77835083 -815.93444824 -1224.2768555 0 -1640.4056396 -1639.1134033
          -407.5713501 -1226.3885498 -1635.6794434 -816.90496826 -1637.6717529 0
          -2053.1662598 -1227.3118896 -409.10806274 -2051.6601563 -2047.7596436 -819.00640869
          -1638.4648438 -2049.5773926 -1229.6204834 -2466.3981934 0 -409.72631836
          -2464.7041016 -819.97766113 -2460.380127 -1640.8344727 -2050.2111816 -2462.0019531
          -1230.7423096 -2880.0454102 0 -2052.5671387 -2878.1782227 -410.27090454
          -1641.9927979 -2462.4667969 -2873.472168 -820.84204102 -2874.8825684 -1231.7813721
          -2053.6962891 -2464.7619629 0 -3294.0727539 -1643.1132813 -3292.0446777
          -410.59191895 -2875.1743164 -3286.9914551 -821.38024902 -2465.8205566 -1232.447998
          -3288.1730957 -2877.3735352 -2054.8369141 -1643.8426514 -3288.2880859 0
          -3708.4460449 -3706.2692871 -410.77328491 -2466.9389648 -3700.8991699 -2878.3337402
          -821.69110107 -2055.5830078 -3290.3613281 -3701.8330078 -1232.8413086 -3701.7658691
          -1644.2797852 -2879.3989258 0 -2467.6694336 -4123.1259766 -3291.2021484
          -4120.8120117 -410.86254883 -4115.1547852 -821.82501221 -3703.6860352 -2056.0354004
          -4115.8208008 -1232.9991455 -2880.0900879 -3292.1899414 -1644.4475098 -4115.5654297
          -3704.3908691 -2468.1162109 -4538.0654297 0 -4535.6269531 -410.77328491
          -4529.7119141 -4117.3071289 -821.69110107 -2056.2028809 -3292.8249512 -1232.8413086
          -3705.2817383 -4530.0922852 -2880.5163574 -2468.276123 -4117.8618164 -1644.2797852
          -4529.6420898 0 -4953.2089844 -410.59191895 -3705.8469238 -4950.6601563
          -3293.2192383 -4531.1821289 -2056.0354004 -821.38024902 -4944.5195313 -4118.6391602
          -2880.6633301 -1232.447998 -4944.5991211 -4531.574707 -2468.1162109 -1643.8426514
          -4943.9487305 -3706.2004395 -4119.1235352 -3293.3493652 0 -5368.4956055
          -2055.5830078 -4945.2646484 -4532.2241211 -410.27090454 -5365.8515625 -2880.5163574
          -5359.5214844 -820.84204102 -1231.7813721 -5359.2895508 -2467.6694336 -4945.4848633
          -3706.3103027 -4119.4287109 -4532.6181641 -5358.434082 -3293.2192383 -1643.1132813
          -4945.9931641 -2880.0900879 -5359.5068359 -2054.8369141 0 -5783.8603516
          -5781.1391602 -409.72631836 -4119.5161133 -819.97766113 -5774.6577148 -3706.2004395
          -4532.8681641 -1230.7423096 -2466.9389648 -5774.1079102 -5359.5454102 -3292.8249512
          -4946.2890625 -1641.9927979 -5773.0439453 -5359.9013672 -2879.3989258 -4119.4287109
          -5773.8574219 -2053.6962891 -4532.9311523 -3705.8469238 0 -6199.2363281
          -4946.4785156 -6196.4570313 -409.10806274 -6189.8657227 -819.00640869 -2465.8205566
          -5773.7060547 -3292.1899414 -5360.0917969 -1229.6204834 -6188.9970703 -1640.8344727
          -6187.7216797 -4532.8681641 -4119.1235352 -4946.5161133 -5773.9008789 -2878.3337402
          -3705.2817383 -6188.2626953 -2052.5671387 -5360.2167969 0 -6614.5581055
          -407.5713501 -6611.7412109 -816.90496826 -3291.2021484 -5773.9804688 -6605.0825195
          -6187.9155273 -2464.7619629 -4532.6181641 -1227.3118896 -6603.8979492 -4946.4785156
          -4118.6391602 -5360.2265625 -6602.4111328 -1638.4648438 -6187.9404297 -2877.3735352
          -3704.3908691 -5774.0366211 -6602.668457 -2050.2111816 -4946.2890625 -6187.9047852
          -7029.7631836 -3290.3613281 0 -5360.2167969 -4532.2241211 -406.77835083
          -7026.9287109 -2462.4667969 -6602.1196289 -815.93444824 -7020.246582 -4117.8618164
          -5774.0180664 -7018.7529297 -1226.3885498 -2875.1743164 -1637.6717529 -7017.0537109
          -6601.9682617 -3703.6860352 -6187.8891602 -4945.9931641 -5360.0917969 -2049.5773926
          -7017.0180664 -4531.574707 -5774.0366211 -6601.8125 -3288.2880859 -7444.7929688
          0 -2462.0019531 -7441.9628906 -7016.2636719 -4117.3071289 -405.14413452
          -6187.8408203 -813.85913086 -7435.2988281 -7433.5053711 -1224.2768555 -3701.7658691
          -6601.7211914 -5359.9013672 -7015.9296875 -2874.8825684 -5773.9804688 -1635.6794434
          -4945.4848633 -7431.5922852 -6187.8891602 -4531.1821289 -7431.2568359 -2047.7596436
          -7015.6489258 -3288.1730957 -4115.5654297 -6601.6425781 -2460.380127 -7430.2910156
          0 -7859.5966797 -407.41998291 -7856.7915039 -5773.9008789 -7850.1850586
          -816.40637207 -5359.5454102 -4945.2646484 -6187.9047852 -3701.8330078 -1227.2264404
          -7848.1015625 -7015.4780273 -2873.472168 -7429.7675781 -6601.7211914 -1639.1134033
          -4529.6420898 -7845.9716797 -7845.3291016 -2051.6601563 -7429.3564453 -3286.9914551
          -4115.8208008 -7015.3691406 -5773.7060547 -6187.9404297 -5359.5068359 -7844.1455078
          -2464.7041016 -6601.8125 -8274.1298828 -4943.9487305 0 -406.83276367
          -8271.3691406 -816.86083984 -8264.8564453 -3700.8991699 -7429.1025391 -1228.2277832
          -8262.4912109 -2878.1782227 -7015.4780273 -7843.4272461 -4530.0922852 -1640.4056396
          -8260.1386719 -6187.9155273 -5773.8574219 -4115.1547852 -7428.9628906 -3292.0446777
          -8259.1806641 -7842.8798828 -5358.434082 -6601.9682617 -2053.1662598 -7015.6489258
          -4944.5991211 -2466.3981934 -8257.7714844 -8688.3583984 -8685.6591797 -3706.2692871
          -7842.5405273 -8679.2685547 -4529.7119141 -7429.1025391 -8256.8515625 -2880.0454102
          -6188.2626953 -8676.6269531 -6602.1196289 -5773.0439453 -8674.0410156 -7015.9296875
          -5359.2895508 -7842.3696289 -4120.8120117 -3294.0727539 -8256.1640625 -8672.7568359
          -4944.5195313 -7429.3564453 -8671.1132813 -8255.7382813 -3708.4460449 -6602.668457
          -6187.7216797 -7842.5405273 -4535.6269531 -9102.2529297 -9099.6308594 -5774.1079102
          -7016.2636719 -9093.3847656 -8669.9833984 -7429.7675781 -9090.4658203 -5359.5214844
          -9087.6298828 -8255.5332031 -4123.1259766 -4950.6601563 -8669.1513672 -7842.8798828
          -9086.0048828 -6602.4111328 -6188.9970703 -7017.0180664 -9084.1123047 -7430.2910156
          -5774.6577148 -8255.7382813 -4538.0654297 -8668.6337891 -9515.7919922 -5365.8515625
          -7843.4272461 -9513.2607422 -9507.1728516 -9082.7607422 -9503.9697266 -8668.3925781
          -4953.2089844 -8256.1640625 -9500.8574219 -7017.0537109 -6603.8979492 -9081.7753906
          -6189.8657227 -7431.2568359 -9498.8720703 -7844.1455078 -5781.1391602 -8668.6337891
          -9496.7089844 -9081.1582031 -5368.4956055 -8256.8515625 -9928.9609375 -9926.5292969
          -9495.1191406 -7018.7529297 -9920.6044922 -7431.5922852 -6605.0825195 -9080.8779297
          -9917.0996094 -8669.1513672 -7845.3291016 -6196.4570313 -9913.6767578 -9493.9628906
          -8257.7714844 -5783.8603516 -9911.3017578 -9081.1582031 -8669.9833984 -9493.2314453
          -9908.8417969 -7020.246582 -7433.5053711 -7845.9716797 -6611.7412109 -9906.9892578
          -10341.745117 -6199.2363281 -8259.1806641 -10339.420898 -9081.7753906 -9492.9150391
          -10333.65332 -10329.818359 -8671.1132813 -9905.6396484 -10326.038086 -7435.2988281
          -9493.2314453 -10323.236328 -7848.1015625 -7026.9287109 -9082.7607422 -8260.1386719
          -6614.5581055 -9904.7832031 -10320.444336 -8672.7568359 -9493.9628906 -10318.302734
          -10754.126953 -9904.4277344 -10751.916992 -9084.1123047 -10746.292969 -10742.086914
          -7850.1850586 -7441.9628906 -10316.737305 -8262.4912109 -7029.7631836 -10737.888672
          -8674.0410156 -9904.7832031 -9495.1191406 -10734.612305 -10315.75 -9086.0048828
          -10731.445313 -9905.6396484 -7856.7915039 -8264.8564453 -7444.7929688 -10728.983398
          -10315.348633 -9496.7089844 -11166.084961 -8676.6269531 -11163.992188 -11158.489258
          -11153.860352 -10727.19043 -9087.6298828 -11149.168945 -9906.9892578 -10315.75
          -11145.356445 -9498.8720703 -10726.070313 -8271.3691406 -7859.5966797 -8679.2685547
          -11141.765625 -10316.737305 -9908.8417969 -9090.4658203 -10725.607422 -11138.950195
          -11577.583984 -11575.612305 -9500.8574219 -11570.203125 -11136.916016 -11565.081055
          -10318.302734 -10726.070313 -11559.807617 -8274.1298828 -9911.3017578 -8685.6591797
          -9093.3847656 -11555.387695 -11135.643555 -9503.9697266 -10727.19043 -11551.310547
          -10320.444336 -11135.106445 -9913.6767578 -11548.098633 -8688.3583984 -11988.56543
          -11986.720703 -10728.983398 -11981.374023 -9099.6308594 -11545.788086 -10323.236328
          -11135.643555 -11975.680664 -9507.1728516 -11969.719727 -9917.0996094 -11544.318359
          -11964.609375 -10731.445313 -11136.916016 -11959.973633 -10326.038086 -11543.707031
          -9102.2529297 -9513.2607422 -11956.301758 -11138.950195 -12398.943359 -9920.6044922
          -10734.612305 -12397.235352 -12391.923828 -11544.318359 -11953.647461 -12385.568359
          -10329.818359 -12378.802734 -11951.926758 -11141.765625 -12372.907227 -11545.788086
          -9515.7919922 -10737.888672 -12367.628906 -9926.5292969 -11951.250977 -12363.420898
          -10333.65332 -11548.098633 -11145.356445 -12808.586914 -11951.926758 -12807.03125
          -12360.34082 -12801.735352 -10742.086914 -12794.62207 -9928.9609375 -12786.924805
          -11551.310547 -12358.355469 -11149.168945 -11953.647461 -12780.135742 -10339.420898
          -12774.124023 -12357.612305 -10746.292969 -11555.387695 -12769.311523 -11956.301758
          -11153.860352 -12358.355469 -13217.307617 -12765.779297 -13215.933594 -10341.745117
          -13210.648438 -13202.678711 -11959.973633 -10751.916992 -13193.908203 -11559.807617
          -12763.563477 -12360.34082 -13186.107422 -11158.489258 -13179.280273 -12762.709961
          -11964.609375 -12363.420898 -13173.835938 -11565.081055 -10754.126953 -12763.563477
          -13169.899414 -13624.838867 -11163.992188 -13623.689453 -13618.439453 -12367.628906
          -11969.719727 -13609.516602 -12765.779297 -13167.475586 -13599.526367 -11570.203125
          -13590.601563 -13166.4375 -12372.907227 -13582.902344 -11166.084961 -12769.311523
          -11975.680664 -13576.828125 -11575.612305 -13167.475586 -13572.539063 -12378.802734
          -14030.80957 -14029.954102 -12774.124023 -14024.801758 -11981.374023 -14014.850586
          -13169.899414 -13569.819336 -14003.509766 -13993.385742 -11577.583984 -12780.135742
          -13568.566406 -12385.568359 -13984.779297 -13173.835938 -11986.720703 -13978.055664
          -13569.819336 -12786.924805 -13179.280273 -13973.332031 -12391.923828 -14434.714844
          -14434.254883 -14429.328125 -13572.539063 -14418.314453 -13970.147461 -14405.548828
          -11988.56543 -13186.107422 -12794.62207 -14394.202148 -13968.759766 -13576.828125
          -12397.235352 -14384.658203 -14377.195313 -13970.147461 -13193.908203 -12801.735352
          -13582.902344 -14371.832031 -14835.871094 -14835.952148 -14831.466797 -12398.943359
          -13973.332031 -14819.433594 -14368.144531 -14805.239258 -13202.678711 -13590.601563
          -14792.683594 -12807.03125 -13978.055664 -14366.762695 -14782.180664 -14773.914063
          -13599.526367 -14368.144531 -13210.648438 -13984.779297 -14767.858398 -12808.586914
          -15233.361328 -14371.832031 -15234.186523 -15230.467773 -14763.9375 -15217.550781
          -13609.516602 -13993.385742 -15201.977539 -13215.933594 -15188.255859 -14377.195313
          -14762.573242 -15176.887695 -14003.509766 -13618.439453 -14763.9375 -15168.030273
          -14384.658203 -13217.307617 -15161.686523 -14767.858398 -15625.960938 -14014.850586
          -15627.801758 -15625.313477 -15157.908203 -14394.202148 -13623.689453 -15611.750977
          -15594.923828 -14773.914063 -15156.323242 -15580.21582 -15568.391602 -14024.801758
          -14405.548828 -13624.838867 -15157.908203 -14782.180664 -15559.578125 -15553.666992
          -15161.686523 -14418.314453 -14029.954102 -14792.683594 -16012.053711 -16015.269531
          -15550.000977 -16014.650391 -16000.852539 -15983.147461 -15168.030273 -15547.87793
          -15968.041992 -14429.328125 -14805.239258 -14030.80957 -15956.564453 -15550.000977
          -15176.887695 -15948.564453 -15943.500977 -14819.433594 -14434.254883 -15553.666992
          -15188.255859 -16389.521484 -16394.583984 -15939.40332 -16396.71875 -16383.439453
          -15559.578125 -16365.782227 -14831.466797 -15936.713867 -14434.714844 -16351.488281
          -15201.977539 -16341.320313 -15568.391602 -15939.40332 -16334.588867 -14835.952148
          -15217.550781 -16330.223633 -15943.500977 -15580.21582 -16325.52832 -16755.599609
          -16763.117188 -16769.197266 -16757.708984 -15948.564453 -15230.467773 -14835.871094
          -16741.732422 -15594.923828 -16322.649414 -16729.908203 -16721.970703 -15956.564453
          -16325.52832 -16716.923828 -15234.186523 -15611.750977 -16330.223633 -16713.53125
          -15968.041992 -16709.632813 -17106.683594 -17117.388672 -15625.313477 -17128.875
          -16334.588867 -15233.361328 -17120.931641 -15983.147461 -17108.742188 -16706.921875
          -17101.251953 -16341.320313 -17097.189453 -16709.632813 -15627.801758 -16000.852539
          -17095.580078 -16351.488281 -16713.53125 -17095.316406 -15625.960938 -17094.835938
          -16014.650391 -17438.115234 -16716.923828 -17452.785156 -17471.216797 -16365.782227
          -17468.818359 -17092.181641 -17462.898438 -17462.726563 -16721.970703 -16015.269531
          -17466.746094 -17094.835938 -16383.439453 -17472.636719 -16729.908203 -17095.316406
          -17479.125 -16012.053711 -16396.71875 -17483.517578 -17095.580078 -17743.990234
          -16741.732422 -17763.326172 -17790.068359 -17795.599609 -17480.761719 -17800.058594
          -17097.189453 -17813.605469 -16394.583984 -17483.517578 -16757.708984 -17833.228516
          -17851.720703 -17101.251953 -17479.125 -16389.521484 -17867.111328 -16769.197266
          -17874.382813 -17472.636719 -17108.742188 -18017.037109 -18041.519531 -18077.640625
          -18094.878906 -17872.662109 -18117.537109 -16763.117188 -17466.746094 -18155.464844
          -17120.931641 -17874.382813 -18200.162109 -17462.726563 -18236.578125 -17867.111328
          -16755.599609 -17128.875 -18259.496094 -17851.720703 -17462.898438 -18265.783203
          -18248.630859 -18278.164063 -18324.013672 -18267.490234 -18358.449219 -17117.388672
          -18409.875 -17833.228516 -17468.818359 -18485.205078 -18265.783203 -18568.048828
          -17813.605469 -17106.683594 -18632.121094 -18259.496094 -17471.216797 -18660.75
          -17800.058594 -18236.578125 -18665.302734 -18428.939453 -18461.701172 -17452.785156
          -18514.773438 -18668.791016 -18570.119141 -18200.162109 -18659.046875 -17795.599609
          -18787.904297 -18665.302734 -18934.091797 -17438.115234 -18155.464844 -19049.173828
          -17790.068359 -18660.75 -19087.611328 -18117.537109 -18632.121094 -19093.958984
          -17763.326172 -18547.714844 -18577.46875 -18628.626953 -19095.503906 -18568.048828
          -18701.591797 -18094.878906 -18833.826172 -19040.744141 -19093.958984 -17743.990234
          -19299.564453 -18485.205078 -18077.640625 -19511.039063 -19087.611328 -19560.769531
          -18409.875 -19049.173828 -19555.080078 -18041.519531 -18598.910156 -18610.988281
          -19544.046875 -18934.091797 -18644.414063 -18358.449219 -18725.574219 -18898.316406
          -19555.080078 -18017.037109 -19204.5625 -18787.904297 -19649.845703 -18324.013672
          -19560.769531 -20052.421875 -20151.433594 -18659.046875 -19511.039063 -18278.164063
          -20120.716797 -18570.119141 -18589.798828 -19299.564453 -18596.294922 -20131.357422
          -18622.517578 -18708.902344 -18928.501953 -18248.630859 -20120.716797 -19457.859375
          -19040.744141 -18514.773438 -20329.701172 -20151.433594 -20664.513672 -18833.826172
          -20642.666016 -20052.421875 -18461.701172 -20619.017578 -18701.591797 -19649.845703
          -20603.142578 -18428.939453 -20619.017578 -19204.5625 -18628.626953 -20642.666016
          -18898.316406 -18577.46875 -20664.513672 -18725.574219 -20329.701172 -18547.714844
          -18644.414063 -19457.859375 -18928.501953 -18610.988281 -18708.902344 -18598.910156
          -18622.517578 -18596.294922 -18589.798828
        </DataArray>
        <DataArray type="Float32" Name="VELOCITY" NumberOfComponents="3" ComponentName0="X-VELOCITY" ComponentName1="Y-VELOCITY" ComponentName2="Z-VELOCITY" format="ascii" RangeMin="0" RangeMax="82.739044189">
          0 0 0 0 0 0
          14.975580215 0.066765651107 0 15.443383217 0.14127072692 0
          16.494556427 0.17270749807 0 0 0 0
          15.371212959 0.18858909607 0 16.599960327 0.20511637628 0
          16.750534058 0.23074616492 0 34.404529572 0.094612568617 0
          0 0 0 15.180972099 0.21901798248 0
          34.408901215 0.13091512024 0 34.385303497 0.15363003314 0
          16.932029724 0.25202313066 0 41.038021088 0.12128050625 0
          0 0 0 14.950099945 0.24271391332 0
          41.053527832 0.14173293114 0 34.341003418 0.17309714854 0
          17.137903214 0.2724775672 0 41.084590912 0.16438105702 0
          34.284706116 0.19162097573 0 50.322898865 0.095519348979 0
          0 0 0 41.127170563 0.18389469385 0
          50.339923859 0.11055496335 0 14.696816444 0.26240685582 0
          17.361614227 0.29188522696 0 50.358207703 0.12657105923 0
          41.178195953 0.20158848166 0 34.221328735 0.20943188667 0
          50.377117157 0.14163251221 0 0 0 0
          55.565330505 0.082020059228 0 55.58637619 0.092879921198 0
          14.427791595 0.27905127406 0 55.612506866 0.10616721213 0
          17.597726822 0.30975729227 0 50.396518707 0.15572547913 0
          41.236026764 0.21791180968 0 34.153659821 0.22626179457 0
          55.64345932 0.11885821074 0 0 0 0
          57.203140259 0.058966625482 0 50.416568756 0.16891939938 0
          14.146858215 0.29309466481 0 57.227622986 0.065853647888 0
          55.678569794 0.13071286678 0 41.299495697 0.23289513588 0
          17.842136383 0.32580986619 0 57.256210327 0.074494548142 0
          34.083473206 0.24185918272 0 57.288658142 0.083133593202 0
          55.7174263 0.14170317352 0 50.437427521 0.18118064106 0
          61.105709076 0.036611869931 0 0 0 0
          57.324443817 0.091384127736 0 13.8568964 0.30475437641 0
          61.125911713 0.04147189483 0 41.367652893 0.2464440316 0
          18.091688156 0.33987817168 0 61.148700714 0.047044444829 0
          55.759723663 0.15180256963 0 61.174331665 0.052640061826 0
          34.012088776 0.25603675842 0 50.459205627 0.19241769612 0
          57.363193512 0.099106423557 0 61.202823639 0.058013092726 0
          41.439651489 0.2584425807 0 73.190437317 0.018655108288 0
          0 0 0 13.560396194 0.31411346793 0
          73.209320068 0.021006211638 0 57.404613495 0.10622946918 0
          18.343774796 0.35183161497 0 55.805187225 0.16096001863 0
          73.231132507 0.023760430515 0 61.234062195 0.063048876822 0
          50.481948853 0.20252172649 0 33.940574646 0.26863628626 0
          73.25579834 0.026510214433 0 41.514717102 0.26877626777 0
          73.283172607 0.029145993292 0 57.448448181 0.11270470172 0
          81.760368347 -2.5888319266e-013 0 61.267879486 0.067689813673 0
          0 0 0 55.85351181 0.16911034286 0
          13.25967598 0.32117900252 0 81.780807495 -2.3226676116e-013 0
          18.596099854 0.36154222488 0 81.803955078 -2.1767711331e-013 0
          50.505653381 0.21138359606 0 73.313087463 0.031616911292 0
          33.869880676 0.27950495481 0 81.829864502 -2.0152873511e-013 0
          61.304069519 0.071906492114 0 57.494438171 0.11848954111 0
          81.858467102 -1.8012495792e-013 0 41.592105865 0.27733516693 0
          55.904346466 0.17618314922 0 73.345344543 0.033900100738 0
          0 0 0 73.190437317 -0.018655108288 0
          12.95697403 0.32592311502 0 73.209320068 -0.021006211638 0
          18.846567154 0.36888155341 0 50.530281067 0.21889817715 0
          73.231132507 -0.023760430515 0 81.889633179 -1.4987727585e-013 0
          61.342395782 0.075673654675 0 73.25579834 -0.026510214433 0
          57.542320251 0.12353551388 0 33.800830841 0.2884901166 0
          73.379730225 0.035983528942 0 81.923194885 -1.1783305722e-013 0
          55.957324982 0.18210412562 0 73.283172607 -0.029145993292 0
          41.671089172 0.28401571512 0 61.105709076 -0.036611869931 0
          0 0 0 61.125911713 -0.04147189483 0
          61.382621765 0.0789514184 0 12.654481888 0.32831114531 0
          73.416015625 0.037849403918 0 50.555778503 0.22496455908 0
          73.313087463 -0.031616911292 0 61.148700714 -0.047044444829 0
          19.093225479 0.37372863293 0 57.591815948 0.12778009474 0
          81.958961487 -8.0045968768e-014 0 61.174331665 -0.052640061826 0
          33.734161377 0.2954441905 0 56.012050629 0.18679502606 0
          73.345344543 -0.033900100738 0 61.202823639 -0.058013092726 0
          41.750953674 0.28872454166 0 73.453987122 0.039466761053 0
          61.424499512 0.081684425473 0 81.996742249 -4.103581556e-014 0
          57.203140259 -0.058966625482 0 0 0 0
          61.234062195 -0.063048876822 0 50.582065582 0.22948777676 0
          57.642654419 0.13115344942 0 57.227622986 -0.065853647888 0
          12.354342461 0.32832086086 0 73.379730225 -0.035983528942 0
          19.334274292 0.37598061562 0 57.256210327 -0.074494548142 0
          57.288658142 -0.083133593202 0 33.67049408 0.30023357272 0
          61.267879486 -0.067689813673 0 56.068119049 0.19018182158 0
          82.03629303 -1.7590155339e-014 0 73.493377686 0.04080286622 0
          61.467750549 0.083826720715 0 41.830989838 0.2913838923 0
          73.416015625 -0.037849403918 0 57.324443817 -0.091384127736 0
          57.694534302 0.1336030513 0 61.304069519 -0.071906492114 0
          50.609031677 0.23238494992 0 57.363193512 -0.099106423557 0
          55.565330505 -0.082020059228 0 0 0 0
          12.05862999 0.32595434785 0 55.58637619 -0.092879921198 0
          82.077331543 -3.2499390413e-014 0 55.612506866 -0.10616721213 0
          19.568073273 0.37556269765 0 73.453987122 -0.039466761053 0
          73.5338974 0.041847389191 0 55.64345932 -0.11885821074 0
          57.404613495 -0.10622946918 0 33.610343933 0.30274802446 0
          56.125102997 0.19221043587 0 61.342395782 -0.075673654675 0
          61.512058258 0.085373438895 0 55.678569794 -0.13071286678 0
          41.910507202 0.29193782806 0 57.747104645 0.13511554897 0
          57.448448181 -0.11270470172 0 73.493377686 -0.04080286622 0
          50.636550903 0.23359385133 0 55.7174263 -0.14170317352 0
          82.1195755 -3.5795876625e-014 0 61.382621765 -0.0789514184 0
          50.322898865 -0.095519348979 0 0 0 0
          73.575256348 0.042622320354 0 11.769322395 0.32124528289 0
          50.339923859 -0.11055496335 0 19.79315567 0.37243592739 0
          50.358207703 -0.12657105923 0 55.759723663 -0.15180256963 0
          56.182540894 0.1928575784 0 57.494438171 -0.11848954111 0
          61.557064056 0.086358219385 0 50.377117157 -0.14163251221 0
          33.554111481 0.30290853977 0 50.396518707 -0.15572547913 0
          41.98884964 0.29035720229 0 73.5338974 -0.041847389191 0
          61.424499512 -0.081684425473 0 82.162742615 -4.1489089996e-014 0
          57.799972534 0.13570468128 0 55.805187225 -0.16096001863 0
          57.542320251 -0.12353551388 0 50.664459229 0.23307810724 0
          50.416568756 -0.16891939938 0 73.617172241 0.043152678758 0
          41.038021088 -0.12128050625 0 0 0 0
          41.053527832 -0.14173293114 0 11.488280296 0.31426206231 0
          41.084590912 -0.16438105702 0 55.85351181 -0.16911034286 0
          61.602413177 0.086796447635 0 20.008247375 0.36660251021 0
          56.239948273 0.19212132692 0 50.437427521 -0.18118064106 0
          61.467750549 -0.083826720715 0 41.127170563 -0.18389469385 0
          33.502063751 0.30067256093 0 73.575256348 -0.042622320354 0
          57.591815948 -0.12778009474 0 82.206604004 -4.7004531479e-014 0
          42.065395355 0.28664234281 0 41.178195953 -0.20158848166 0
          57.852741241 0.13536170125 0 50.459205627 -0.19241769612 0
          55.904346466 -0.17618314922 0 73.659385681 0.043412920088 0
          50.692546844 0.23082493246 0 41.236026764 -0.21791180968 0
          61.512058258 -0.085373438895 0 61.64780426 0.08661980927 0
          0 0 0 50.481948853 -0.20252172649 0
          34.404529572 -0.094612568617 0 73.617172241 -0.043152678758 0
          57.642654419 -0.13115344942 0 34.408901215 -0.13091512024 0
          11.21721077 0.30510810018 0 41.299495697 -0.23289513588 0
          56.296836853 0.18999566138 0 34.385303497 -0.15363003314 0
          20.212285995 0.35810825229 0 55.957324982 -0.18210412562 0
          82.25088501 -5.9883548858e-014 0 33.454368591 0.29603689909 0
          34.341003418 -0.17309714854 0 41.367652893 -0.2464440316 0
          34.284706116 -0.19162097573 0 42.139572144 0.28082317114 0
          57.905078888 0.13401588798 0 50.505653381 -0.21138359606 0
          73.701660156 0.043311458081 0 57.694534302 -0.1336030513 0
          61.557064056 -0.086358219385 0 34.221328735 -0.20943188667 0
          50.720603943 0.22683833539 0 56.012050629 -0.18679502606 0
          73.659385681 -0.043412920088 0 61.692985535 0.085693851113 0
          41.439651489 -0.2584425807 0 0 0 0
          16.494556427 -0.17270749807 0 34.153659821 -0.22626179457 0
          10.957653999 0.2939195931 0 56.352783203 0.18645618856 0
          50.530281067 -0.21889817715 0 16.599960327 -0.20511637628 0
          82.295227051 -7.382625327e-014 0 16.750534058 -0.23074616492 0
          20.404426575 0.34704199433 0 33.411071777 0.28903782368 0
          16.932029724 -0.25202313066 0 41.514717102 -0.26877626777 0
          73.743652344 0.042765941471 0 57.747104645 -0.13511554897 0
          57.95671463 0.13157150149 0 34.083473206 -0.24185918272 0
          61.602413177 -0.086796447635 0 17.137903214 -0.2724775672 0
          56.068119049 -0.19018182158 0 42.210865021 0.27295824885 0
          73.701660156 -0.043311458081 0 50.555778503 -0.22496455908 0
          50.748409271 0.22113594413 0 17.361614227 -0.29188522696 0
          61.737659454 0.083955489099 0 34.012088776 -0.25603675842 0
          41.592105865 -0.27733516693 0 82.339141846 -5.9202154897e-014 0
          17.597726822 -0.30975729227 0 56.407432556 0.18148395419 0
          14.975580215 -0.066765651107 0 0 0 0
          15.443383217 -0.14127072692 0 10.710954666 0.28086078167 0
          57.799972534 -0.13570468128 0 20.584051132 0.33353224397 0
          15.371212959 -0.18858909607 0 56.125102997 -0.19221043587 0
          50.582065582 -0.22948777676 0 61.64780426 -0.08661980927 0
          33.940574646 -0.26863628626 0 15.180972099 -0.21901798248 0
          33.372138977 0.27974897623 0 73.784942627 0.04182658717 0
          17.842136383 -0.32580986619 0 58.007362366 0.12802192569 0
          73.743652344 -0.042765941471 0 14.950099945 -0.24271391332 0
          41.671089172 -0.28401571512 0 42.278831482 0.26313176751 0
          50.775760651 0.21375274658 0 14.696816444 -0.26240685582 0
          61.781394958 0.081557199359 0 18.091688156 -0.33987817168 0
          33.869880676 -0.27950495481 0 82.382225037 -5.4495897541e-014 0
          56.182540894 -0.1928575784 0 57.852741241 -0.13536170125 0
          50.609031677 -0.23238494992 0 56.46043396 0.17511725426 0
          14.427791595 -0.27905127406 0 61.692985535 -0.085693851113 0
          0 0 0 41.750953674 -0.28872454166 0
          0 0 0 0 0 0
          10.478255272 0.26611727476 0 0 0 0
          20.750759125 0.31774008274 0 18.343774796 -0.35183161497 0
          73.825111389 0.04069987312 0 0 0 0
          33.337432861 0.26827523112 0 14.146858215 -0.29309466481 0
          73.784942627 -0.04182658717 0 58.056575775 0.12353195995 0
          33.800830841 -0.2884901166 0 0 0 0
          42.343105316 0.25144582987 0 56.239948273 -0.19212132692 0
          50.636550903 -0.23359385133 0 18.596099854 -0.36154222488 0
          82.424278259 -1.9126010725e-014 0 13.8568964 -0.30475437641 0
          50.802452087 0.20474730432 0 61.823646545 0.078809291124 0
          41.830989838 -0.2913838923 0 57.905078888 -0.13401588798 0
          0 0 0 61.737659454 -0.083955489099 0
          33.734161377 -0.2954441905 0 0 0 0
          56.511352539 0.16747885942 0 0 0 0
          10.260484695 0.24988691509 0 13.560396194 -0.31411346793 0
          73.863929749 0.039559580386 0 20.904371262 0.29984843731 0
          18.846567154 -0.36888155341 0 73.825111389 -0.04069987312 0
          58.103752136 0.11834692955 0 0 0 0
          50.664459229 -0.23307810724 0 33.306758881 0.25474125147 0
          56.296836853 -0.18999566138 0 41.910507202 -0.29193782806 0
          42.403400421 0.23800829053 0 57.95671463 -0.13157150149 0
          33.67049408 -0.30023357272 0 82.465324402 2.3484098577e-015 0
          13.25967598 -0.32117900252 0 0 0 0
          61.863983154 0.075850561261 0 50.828243256 0.19420468807 0
          19.093225479 -0.37372863293 0 61.781394958 -0.081557199359 0
          56.559669495 0.15872652829 0 73.901390076 0.038263484836 0
          0 0 0 50.692546844 -0.23082493246 0
          41.98884964 -0.29035720229 0 73.863929749 -0.039559580386 0
          12.95697403 -0.32592311502 0 0 0 0