<?xml version="1.0"?>
<VTKFile type="PolyData" version="0.1" byte_order="LittleEndian" compressor="vtkZLibDataCompressor">
  <PolyData>
    <Piece NumberOfPoints="1071" NumberOfVerts="0" NumberOfLines="0" NumberOfStrips="0" NumberOfPolys="2000">
      <PointData>
        <DataArray type="Float32" Name="PRESSURE" format="ascii" RangeMin="-37804.925781" RangeMax="0">
          0 -740.78186035 0 -738.76159668 0 -1462.0842285
          -1456.6508789 -723.07110596 -1438.0140381 0 -2173.2731934 -2166.0449219
          -712.35778809 -1422.5013428 -2146.2348633 0 -2876.5339355 -2868.6157227
          -707.41229248 -2128.519043 -2848.4384766 -1413.2078857 -2829.861084 0
          -3572.7277832 -2116.1794434 -702.49230957 -3564.6933594 -3544.8388672 -1404.5067139
          -2815.5744629 -3526.2734375 -2104.6704102 -4262.3598633 0 -699.12658691
          -4254.5415039 -1398.0565186 -4235.5756836 -2802.1328125 -3510.925293 -4217.6474609
          -2095.7612305 -4945.9155273 0 -3496.3242188 -4938.5292969 -697.66534424
          -2791.3842773 -4201.9677734 -4920.8730469 -1394.6589355 -4904.0244141 -2090.5612793
          -3484.3210449 -4186.8798828 0 -5623.9838867 -2784.7087402 -5617.1723633
          -696.67578125 -4888.6142578 -5601.0966797 -1392.6496582 -4174.1650391 -2087.4941406
          -5585.6113281 -4873.6108398 -3476.5454102 -2780.7106934 -5570.9482422 0
          -6297.2939453 -6291.1386719 -695.47393799 -4165.6640625 -6276.7646484 -4860.6777344
          -1390.6610107 -3471.822998 -5556.4892578 -6262.78125 -2084.8666992 -6249.2099609
          -2777.5473633 -4851.8041992 0 -4160.4487305 -6966.6855469 -5543.7705078
          -6961.2138672 -694.74694824 -6948.5219727 -1389.4805908 -6235.6391602 -3468.2458496
          -6936.0463867 -2083.3752441 -4846.3217773 -5534.8417969 -2775.8269043 -6923.7758789
          -6223.4912109 -4156.5957031 -7633.0522461 0 -7628.2402344 -695.47393799
          -7617.0908203 -6911.3144531 -1390.6610107 -3466.3598633 -5529.2944336 -2084.8666992
          -6214.7739258 -7606.0170898 -4842.3339844 -4154.6049805 -6900.0014648 -2777.5473633
          -7595.1196289 0 -8297.2646484 -696.67578125 -6209.3320313 -8293.046875
          -5525.3046875 -7583.8657227 -3468.2458496 -1392.6496582 -8283.203125 -6891.703125
          -4840.296875 -2087.4941406 -8273.3408203 -7573.5522461 -4156.5957031 -2780.7106934
          -8263.7626953 -6205.4541016 -6886.4980469 -5523.2758789 0 -8960.1005859
          -3471.822998 -8253.7021484 -7565.8134766 -697.66534424 -8956.3779297 -4842.3339844
          -8947.5419922 -1394.6589355 -2090.5612793 -8938.6435547 -4160.4487305 -8244.453125
          -6203.4824219 -6882.8198242 -7560.9335938 -8930.2246094 -5525.3046875 -2784.7087402
          -8237.34375 -4846.3217773 -8921.2470703 -3476.5454102 0 -9622.1923828
          -9618.8466797 -699.12658691 -6880.9448242 -1398.0565186 -9610.6845703 -6205.4541016
          -7557.515625 -2095.7612305 -4165.6640625 -9602.4716797 -8913.0361328 -5529.2944336
          -8232.8349609 -2791.3842773 -9594.9755859 -8906.5615234 -4851.8041992 -6882.8198242
          -9586.9033203 -3484.3210449 -7555.7651367 -6209.3320313 0 -10283.994141
          -8229.7080078 -10280.896484 -702.49230957 -10273.068359 -1404.5067139 -4174.1650391
          -9579.6279297 -5534.8417969 -8902.4306641 -2104.6704102 -10265.262695 -2802.1328125
          -10258.404297 -7557.515625 -6886.4980469 -8228.0986328 -9573.7373047 -4860.6777344
          -6214.7739258 -10251.016602 -3496.3242188 -8899.5986328 0 -10945.780273
          -707.41229248 -10942.803711 -1413.2078857 -5543.7705078 -9569.9560547 -10934.985352
          -10244.519531 -4186.8798828 -7560.9335938 -2116.1794434 -10927.324219 -8229.7080078
          -6891.703125 -8898.1337891 -10920.799805 -2815.5744629 -10239.119141 -4873.6108398
          -6223.4912109 -9567.3984375 -10913.859375 -3510.925293 -8232.8349609 -10235.634766
          -11607.65918 -5556.4892578 0 -8899.5986328 -7565.8134766 -712.35778809
          -11604.685547 -4201.9677734 -10907.949219 -1422.5013428 -11596.582031 -6900.0014648
          -9566.0751953 -11588.831055 -2128.519043 -4888.6142578 -2829.861084 -11582.34375
          -10902.920898 -6235.6391602 -10233.314453 -8237.34375 -8902.4306641 -3526.2734375
          -11575.620117 -7573.5522461 -9567.3984375 -10899.663086 -5570.9482422 -12269.603516
          0 -4217.6474609 -12266.530273 -11570.094727 -6911.3144531 -723.07110596
          -10232.118164 -1438.0140381 -12257.882813 -12249.84375 -2146.2348633 -6249.2099609
          -10897.529297 -8906.5615234 -11565.305664 -4904.0244141 -9569.9560547 -2848.4384766
          -8244.453125 -12243.118164 -10233.314453 -7583.8657227 -12236.405273 -3544.8388672
          -11562.196289 -5585.6113281 -6923.7758789 -10896.441406 -4235.5756836 -12231.068359
          0 -12931.484375 -738.76159668 -12928.227539 -9573.7373047 -12918.814453
          -1456.6508789 -8913.0361328 -8253.7021484 -10235.634766 -6262.78125 -2166.0449219
          -12910.326172 -11560.19043 -4920.8730469 -12226.386719 -10897.529297 -2868.6157227
          -7595.1196289 -12903.125 -12896.25 -3564.6933594 -12223.34375 -5601.0966797
          -6936.0463867 -11559.189453 -9579.6279297 -10239.119141 -8921.2470703 -12890.917969
          -4254.5415039 -10899.663086 -13593.106445 -8263.7626953 0 -740.78186035
          -13589.598633 -1462.0842285 -13579.234375 -6276.7646484 -12221.408203 -2173.2731934
          -13570.170898 -4938.5292969 -11560.19043 -12886.225586 -7606.0170898 -2876.5339355
          -13562.294922 -10244.519531 -9586.9033203 -6948.5219727 -12220.472656 -5617.1723633
          -13555.124023 -12883.173828 -8930.2246094 -10902.920898 -3572.7277832 -11562.196289
          -8273.3408203 -4262.3598633 -13549.642578 -14254.227539 -14250.417969 -6291.1386719
          -12881.254883 -14238.952148 -7617.0908203 -12221.408203 -13544.839844 -4945.9155273
          -10251.016602 -14229.21875 -10907.949219 -9594.9755859 -14220.512695 -11565.305664
          -8938.6435547 -12880.363281 -6961.2138672 -5623.9838867 -13541.713867 -14212.950195
          -8283.203125 -12223.34375 -14207.195313 -13539.766602 -6297.2939453 -10913.859375
          -10258.404297 -12881.254883 -7628.2402344 -14914.575195 -14910.429688 -9602.4716797
          -11570.094727 -14897.744141 -14202.206055 -12226.386719 -14887.274414 -8947.5419922
          -14877.625977 -13538.899414 -6966.6855469 -8293.046875 -14198.957031 -12883.173828
          -14869.614258 -10920.799805 -10265.262695 -11575.620117 -14863.496094 -12231.068359
          -9610.6845703 -13539.766602 -7633.0522461 -14196.948242 -15573.853516 -8956.3779297
          -12886.225586 -15569.351563 -15555.362305 -14858.271484 -15544.118164 -14196.088867
          -8297.2646484 -13541.713867 -15533.457031 -11582.34375 -10927.324219 -14854.868164
          -10273.068359 -12236.405273 -15524.975586 -12890.917969 -9618.8466797 -14196.948242
          -15518.438477 -14852.772461 -8960.1005859 -13544.839844 -16231.735352 -16226.870117
          -15512.958008 -11588.831055 -16211.535156 -12243.118164 -10934.985352 -14851.907227
          -16199.506836 -14198.957031 -12896.25 -10280.896484 -16187.811523 -15509.383789
          -13549.642578 -9622.1923828 -16178.874023 -14852.772461 -14202.206055 -15507.18457
          -16171.902344 -11596.582031 -12249.84375 -12903.125 -10942.803711 -16166.171875
          -16887.851563 -10283.994141 -13555.124023 -16882.634766 -14854.868164 -15506.307617
          -16865.962891 -16853.175781 -14207.195313 -16162.424805 -16840.478516 -12257.882813
          -15507.18457 -16831.136719 -12910.326172 -11604.685547 -14858.271484 -13562.294922
          -10945.780273 -16160.118164 -16823.757813 -14212.950195 -15509.383789 -16817.816406
          -17541.785156 -16159.232422 -17536.244141 -14863.496094 -17518.310547 -17504.837891
          -12918.814453 -12266.530273 -16813.919922 -13570.170898 -11607.65918 -17491.236328
          -14220.512695 -16160.118164 -15512.958008 -17481.585938 -16811.527344 -14869.614258
          -17473.875 -16162.424805 -12928.227539 -13579.234375 -12269.603516 -17467.804688
          -16810.632813 -15518.438477 -18193.052734 -14229.21875 -18187.242188 -18168.203125
          -18154.175781 -17463.816406 -14877.625977 -18139.845703 -16166.171875 -16811.527344
          -18130.037109 -15524.975586 -17461.386719 -13589.598633 -12931.484375 -14238.952148
          -18122.132813 -16813.919922 -16171.902344 -14887.274414 -17460.490234 -18116.060547
          -18841.091797 -18835.097656 -15533.457031 -18815.214844 -18112.09375 -18800.849609
          -16817.816406 -17461.386719 -18786.058594 -13593.106445 -16178.874023 -14250.417969
          -14897.744141 -18776.308594 -18109.697266 -15544.118164 -17463.816406 -18768.423828
          -16823.757813 -18108.802734 -16187.811523 -18762.537109 -14254.227539 -19485.261719
          -19479.207031 -17467.804688 -19458.865234 -14910.429688 -18758.740234 -16831.136719
          -18109.697266 -19444.486328 -15555.362305 -19429.617188 -16199.506836 -18756.449219
          -19420.236328 -17473.875 -18112.09375 -19412.662109 -16840.478516 -18755.580078
          -14914.575195 -15569.351563 -19407.207031 -18116.060547 -20124.837891 -16211.535156
          -17481.585938 -20118.892578 -20098.619141 -18756.449219 -19403.75 -20084.685547
          -16853.175781 -20070.263672 -19401.646484 -18122.132813 -20061.671875 -18758.740234
          -15573.853516 -17491.236328 -20054.806641 -16226.870117 -19400.855469 -20050.097656
          -16865.962891 -18762.537109 -18130.037109 -20759.009766 -19401.646484 -20753.400391
          -20047.181641 -20733.888672 -17504.837891 -20721.029297 -16231.735352 -20707.748047
          -18768.423828 -20045.402344 -18139.845703 -19403.75 -20700.503906 -16882.634766
          -20694.867188 -20044.761719 -17518.310547 -18776.308594 -20691.314453 -19407.207031
          -18154.175781 -20045.402344 -21386.884766 -20689.242188 -21381.902344 -16887.851563
          -21364.03125 -21353.083984 -19412.662109 -17536.244141 -21341.822266 -18786.058594
          -20688.033203 -20047.181641 -21336.652344 -18168.203125 -21332.927734 -20687.601563
          -19420.236328 -20050.097656 -21331.097656 -18800.849609 -17541.785156 -20688.033203
          -21330.347656 -22007.494141 -18187.242188 -22003.501953 -21988.355469 -20054.806641
          -19429.617188 -21980.394531 -20689.242188 -21330.052734 -21972.255859 -18815.214844
          -21970.09375 -21329.857422 -20061.671875 -21969.173828 -18193.052734 -20691.314453
          -19444.486328 -21969.841797 -18835.097656 -21330.052734 -21971.082031 -20070.263672
          -22619.792969 -22617.236328 -20694.867188 -22606.123047 -19458.865234 -22602.503906
          -21330.347656 -21972.044922 -22598.857422 -22600.917969 -18841.091797 -20700.503906
          -21972.136719 -20084.685547 -22603.949219 -21331.097656 -19479.207031 -22608.091797
          -21972.044922 -20707.748047 -21332.927734 -22612.060547 -20098.619141 -23222.644531
          -23222.0625 -23216.544922 -21971.082031 -23218.960938 -22614.576172 -23221.519531
          -19485.261719 -21336.652344 -20721.029297 -23229.369141 -22615.136719 -21969.841797
          -20118.892578 -23237.779297 -23246.537109 -22614.576172 -21341.822266 -20733.888672
          -21969.173828 -23253.960938 -23814.810547 -23816.851563 -23818.775391 -20124.837891
          -22612.060547 -23829.320313 -23258.4375 -23840.216797 -21353.083984 -21970.09375
          -23855.828125 -20753.400391 -22608.091797 -23259.818359 -23871.359375 -23886.083984
          -21972.255859 -23258.4375 -21364.03125 -22603.949219 -23897.869141 -20759.009766
          -24394.904297 -23253.960938 -24400.333984 -24411.871094 -23905.134766 -24433.097656
          -21980.394531 -22600.917969 -24454.923828 -21381.902344 -24480.701172 -23246.537109
          -23907.716797 -24505.529297 -22598.857422 -21988.355469 -23905.134766 -24528.070313
          -23237.779297 -21386.884766 -24545.757813 -23897.869141 -24961.322266 -22602.503906
          -24971.042969 -24994.71875 -24557.126953 -23229.369141 -22003.501953 -25029.671875
          -25065.515625 -23886.083984 -24561.128906 -25104.414063 -25141.439453 -22606.123047
          -23221.519531 -22007.494141 -24557.126953 -23871.359375 -25174.529297 -25200.541016
          -24545.757813 -23218.960938 -22617.236328 -23855.828125 -25512.166016 -25527.226563
          -25217.398438 -25565.962891 -25618.240234 -25671.832031 -24528.070313 -25222.884766
          -25727.679688 -23216.544922 -23840.216797 -22619.792969 -25780.851563 -25217.398438
          -24505.529297 -25828.183594 -25865.458984 -23829.320313 -23222.0625 -25200.541016
          -24480.701172 -26045.125 -26066.748047 -25888.84375 -26123.921875 -26197.828125
          -25174.529297 -26273.916016 -23818.775391 -25896.107422 -23222.644531 -26351.853516
          -24454.923828 -26426.214844 -25141.439453 -25888.84375 -26492.111328 -23816.851563
          -24433.097656 -26543.634766 -25865.458984 -25104.414063 -26574.802734 -26557.337891
          -26586.943359 -26666.462891 -26767.228516 -25828.183594 -24411.871094 -23814.810547
          -26871.929688 -25065.515625 -26584.689453 -26978.558594 -27080.080078 -25780.851563
          -26574.802734 -27169.548828 -24400.333984 -25029.671875 -26543.634766 -27239.009766
          -25727.679688 -27281.033203 -27045.214844 -27084.40625 -24994.71875 -27190.707031
          -26492.111328 -24394.904297 -27324.513672 -25671.832031 -27465.207031 -27294.814453
          -27608.3125 -26426.214844 -27744.433594 -27281.033203 -24971.042969 -25618.240234
          -27864.605469 -26351.853516 -27239.009766 -27958.480469 -24961.322266 -28017.361328
          -25565.962891 -27504.220703 -27169.548828 -27554.71875 -27692.501953 -26273.916016
          -27866.052734 -28036.349609 -28050.882813 -28239.800781 -27080.080078 -25527.226563
          -28421.572266 -28017.361328 -26197.828125 -28583.957031 -26978.558594 -27958.480469
          -28713.099609 -25512.166016 -26123.921875 -28796.832031 -27864.605469 -27928.724609
          -26871.929688 -27992.195313 -28165.927734 -28385.882813 -28822.775391 -28624.095703
          -27744.433594 -28871.947266 -26066.748047 -28796.832031 -26767.228516 -29116.371094
          -29337.529297 -27608.3125 -28713.099609 -26045.125 -29516.246094 -26666.462891
          -29632.589844 -28583.957031 -27465.207031 -28311.951172 -28389.820313 -28603.189453
          -28876.316406 -29669.253906 -29180.164063 -26586.943359 -28421.572266 -29505.933594
          -27324.513672 -29632.589844 -29835.746094 -28239.800781 -30137.242188 -29516.246094
          -26557.337891 -27190.707031 -30382.007813 -29337.529297 -28050.882813 -30538.628906
          -28646.111328 -28739.289063 -28994.542969 -30593.990234 -29327.894531 -27084.40625
          -29712.400391 -29116.371094 -27866.052734 -30138.839844 -30538.628906 -30582.714844
          -28871.947266 -27045.214844 -30996.523438 -30382.007813 -27692.501953 -31330.496094
          -28624.095703 -30137.242188 -31541.382813 -28922.570313 -29030.755859 -27554.71875
          -29326.494141 -31624.53125 -29723.271484 -29835.746094 -30199.507813 -28385.882813
          -30749.380859 -31541.382813 -31348.015625 -27504.220703 -29505.933594 -31930.888672
          -28165.927734 -31330.496094 -32398.601563 -29180.164063 -30996.523438 -32692.832031
          -27992.195313 -29131.978516 -29252.234375 -29577.701172 -32806.761719 -30582.714844
          -30028.769531 -28876.316406 -30596.986328 -31291.533203 -32692.832031 -27928.724609
          -32102.998047 -30138.839844 -28603.189453 -32953.394531 -32398.601563 -33628.566406
          -29712.400391 -31930.888672 -34056.675781 -28389.820313 -29264.986328 -29391.089844
          -34209.589844 -31348.015625 -29717.740234 -29327.894531 -30199.263672 -30845.330078
          -34056.675781 -28311.951172 -31695.443359 -30749.380859 -32798.359375 -28994.542969
          -33628.566406 -34113.695313 -35135.082031 -30199.507813 -32953.394531 -28739.289063
          -35766.089844 -29723.271484 -29315.943359 -32102.998047 -29443.119141 -36010.8125
          -29759.755859 -30255.998047 -30962.705078 -28646.111328 -35766.089844 -31982.169922
          -31291.533203 -29326.494141 -33572.476563 -35135.082031 -35519.585938 -30596.986328
          -36888.960938 -34113.695313 -29030.755859 -37611.300781 -30028.769531 -32798.359375
          -37804.925781 -28922.570313 -37611.300781 -31695.443359 -29577.701172 -36888.960938
          -30845.330078 -29252.234375 -35519.585938 -30199.263672 -33572.476563 -29131.978516
          -29717.740234 -31982.169922 -30962.705078 -29391.089844 -30255.998047 -29264.986328
          -29759.755859 -29443.119141 -29315.943359
        </DataArray>
        <DataArray type="Float32" Name="VELOCITY" NumberOfComponents="3" ComponentName0="X-VELOCITY" ComponentName1="Y-VELOCITY" ComponentName2="Z-VELOCITY" format="ascii" RangeMin="0" RangeMax="86.512535095">
          0 0 0 0 0 0
          32.180812836 0.55528336763 0 31.440170288 0.70556646585 0
          24.751808167 1.6953970194 0 0 0 0
          30.386579514 0.68639165163 0 24.297849655 1.7029793262 0
          23.692996979 1.6902010441 0 38.464797974 2.0370090008 0
          0 0 0 29.314399719 0.64713811874 0
          38.430984497 2.0350112915 0 38.446445465 1.9926812649 0
          23.058460236 1.6123422384 0 46.542892456 1.9194486141 0
          0 0 0 28.309394836 0.59894359112 0
          46.721302032 1.9387278557 0 38.464668274 1.9022250175 0
          22.442468643 1.4972541332 0 46.832271576 1.9299665689 0
          38.466953278 1.7730156183 0 51.503017426 1.688282609 0
          0 0 0 46.894210815 1.8760012388 0
          51.853878021 1.7188202143 0 27.394933701 0.54302376509 0
          21.873836517 1.3551796675 0 52.204544067 1.7328625917 0
          46.918880463 1.7804596424 0 38.447971344 1.6122169495 0
          52.546024323 1.7029187679 0 0 0 0
          54.430938721 1.2702128887 0 54.926185608 1.2670880556 0
          26.581628799 0.48076158762 0 55.466041565 1.2649469376 0
          21.368240356 1.1947481632 0 52.867572784 1.6334780455 0
          46.912845612 1.648537159 0 38.409076691 1.4283715487 0
          56.016048431 1.2430106401 0 0 0 0
          56.690273285 0.77441501617 0 53.159946442 1.5304465294 0
          25.875606537 0.4146848619 0 57.085582733 0.77400022745 0
          56.551364899 1.1981301308 0 46.880405426 1.4878277779 0
          20.933059692 1.024960041 0 57.490791321 0.76371371746 0
          38.354873657 1.231400013 0 57.896137238 0.74920117855 0
          57.05613327 1.1317144632 0 53.415241241 1.4008673429 0
          62.94052887 0.44665890932 0 0 0 0
          58.293006897 0.72445011139 0 25.278675079 0.34828364849 0
          63.17710495 0.46368569136 0 46.825183868 1.307950139 0
          20.570083618 0.85527771711 0 63.39447403 0.46216243505 0
          57.519672394 1.0470436811 0 63.602073669 0.45399653912 0
          38.291294098 1.0320185423 0 53.628013611 1.2529095411 0
          58.673278809 0.68788540363 0 63.803314209 0.43869522214 0
          46.750816345 1.1196534634 0 74.956512451 0.24544812739 0
          0 0 0 24.78758812 0.28534224629 0
          75.184570313 0.25538945198 0 59.030235291 0.64024543762 0
          20.27702713 0.69490939379 0 57.93504715 0.94863820076 0
          75.409477234 0.25882637501 0 63.996520996 0.41619428992 0
          53.796035767 1.0954045057 0 38.22460556 0.84077441692 0
          75.630325317 0.25509548187 0 46.66122818 0.93369615078 0
          75.844238281 0.2463619709 0 59.358634949 0.58370012045 0
          82.590820313 -9.4463106499e-014 0 64.178367615 0.38721704483 0
          0 0 0 58.298568726 0.84181827307 0
          24.393907547 0.22928895056 0 82.858329773 -1.5593228748e-013 0
          20.048530579 0.551866889 0 83.140548706 -2.0269421178e-013 0
          53.920440674 0.93712258339 0 76.048187256 0.23360331357 0
          38.160835266 0.66693997383 0 83.424064636 -2.2025045362e-013 0
          64.34552002 0.35314372182 0 59.654766083 0.52127927542 0
          83.701004028 -2.0942766293e-013 0 46.560756683 0.75971144438 0
          58.609489441 0.73220556974 0 76.239151001 0.21758215129 0
          0 0 0 74.956512451 -0.24544812739 0
          24.084632874 0.18271811306 0 75.184570313 -0.25538945198 0
          19.87702179 0.43211594224 0 54.005378723 0.7859903574 0
          75.409477234 -0.25882637501 0 83.966011047 -1.8071037288e-013 0
          64.495407104 0.31577837467 0 75.630325317 -0.25509548187 0
          59.916549683 0.45640254021 0 38.105430603 0.51752257347 0
          76.414512634 0.19910480082 0 84.215118408 -1.3848937188e-013 0
          58.86964798 0.62518417835 0 75.844238281 -0.2463619709 0
          46.454048157 0.60526448488 0 62.94052887 -0.44665890932 0
          0 0 0 63.17710495 -0.46368569136 0
          64.626594543 0.27709940076 0 23.843471527 0.14713709056 0
          76.57233429 0.17906278372 0 54.057258606 0.6484194994 0
          76.048187256 -0.23360331357 0 63.39447403 -0.46216243505 0
          19.753652573 0.33902657032 0 60.143604279 0.39245173335 0
          84.445404053 -7.7795896895e-014 0 63.602073669 -0.45399653912 0
          38.062965393 0.39661809802 0 59.082962036 0.5253995657 0
          76.239151001 -0.21758215129 0 63.803314209 -0.43869522214 0
          46.345745087 0.47526806593 0 76.711578369 0.15838429332 0
          64.738883972 0.23902198672 0 84.654922485 -1.8929663406e-014 0
          56.690273285 -0.77441501617 0 0 0 0
          63.996520996 -0.41619428992 0 54.083816528 0.52887111902 0
          60.337146759 0.33240371943 0 57.085582733 -0.77400022745 0
          23.652460098 0.12293306738 0 76.414512634 -0.19910480082 0
          19.669330597 0.27322784066 0 57.490791321 -0.76371371746 0
          57.896137238 -0.74920117855 0 38.03685379 0.30524283648 0
          64.178367615 -0.38721704483 0 59.254840851 0.43638408184 0
          84.842651367 1.4753887538e-014 0 76.832115173 0.13795983791 0
          64.833198547 0.20321013033 0 46.240135193 0.37183961272 0
          76.57233429 -0.17906278372 0 58.293006897 -0.72445011139 0
          60.499786377 0.27857246995 0 64.34552002 -0.35314372182 0
          54.093170166 0.42971485853 0 58.673278809 -0.68788540363 0
          54.430938721 -1.2702128887 0 0 0 0
          23.493638992 0.10951761901 0 54.926185608 -1.2670880556 0
          85.008483887 3.700287147e-014 0 55.466041565 -1.2649469376 0
          19.615730286 0.23287947476 0 76.711578369 -0.15838429332 0
          76.934654236 0.11858280748 0 56.016048431 -1.2430106401 0
          59.030235291 -0.64024543762 0 38.029125214 0.24165865779 0
          59.391525269 0.36036941409 0 64.495407104 -0.31577837467 0
          64.911369324 0.17096786201 0 56.551364899 -1.1981301308 0
          46.140724182 0.29457759857 0 60.635147095 0.23248878121 0
          59.358634949 -0.58370012045 0 76.832115173 -0.13795983791 0
          54.092945099 0.35137426853 0 57.05613327 -1.1317144632 0
          85.153152466 4.8699823877e-014 0 64.626594543 -0.27709940076 0
          51.503017426 -1.688282609 0 0 0 0
          77.020629883 0.10091433674 0 23.350534439 0.10558836907 0
          51.853878021 -1.7188202143 0 19.586101532 0.21428118646 0
          52.204544067 -1.7328625917 0 57.519672394 -1.0470436811 0
          59.499473572 0.29829576612 0 59.654766083 -0.52127927542 0
          64.97580719 0.14319716394 0 52.546024323 -1.7029187679 0
          38.040245056 0.20208479464 0 52.867572784 -1.6334780455 0
          46.049995422 0.24114477634 0 76.934654236 -0.11858280748 0
          64.738883972 -0.23902198672 0 85.278106689 7.4107225957e-015 0
          60.747444153 0.19489718974 0 57.93504715 -0.94863820076 0
          59.916549683 -0.45640254021 0 54.089694977 0.29268959165 0
          53.159946442 -1.5304465294 0 77.09198761 0.085450485349 0
          46.542892456 -1.9194486141 0 0 0 0
          46.721302032 -1.9387278557 0 23.209180832 0.10944218934 0
          46.832271576 -1.9299665689 0 58.298568726 -0.84181827307 0
          65.029205322 0.12037694454 0 19.575799942 0.21267600358 0
          59.584838867 0.24997618794 0 53.415241241 -1.4008673429 0
          64.833198547 -0.20321013033 0 46.894210815 -1.8760012388 0
          38.069068909 0.18160681427 0 77.020629883 -0.10091433674 0
          60.143604279 -0.39245173335 0 85.385391235 -1.3792881225e-014 0
          45.969314575 0.2079936862 0 46.918880463 -1.7804596424 0
          60.841091156 0.16581982374 0 53.628013611 -1.2529095411 0
          58.609489441 -0.73220556974 0 77.151031494 0.072472013533 0
          54.08852005 0.25139600039 0 46.912845612 -1.648537159 0
          64.911369324 -0.17096786201 0 65.074287415 0.1025416404 0
          0 0 0 53.796035767 -1.0954045057 0
          38.464797974 -2.0370090008 0 77.09198761 -0.085450485349 0
          60.337146759 -0.33240371943 0 38.430984497 -2.0350112915 0
          23.058654785 0.11928149313 0 46.880405426 -1.4878277779 0
          59.653133392 0.21434983611 0 38.446445465 -1.9926812649 0
          19.582433701 0.22307616472 0 58.86964798 -0.62518417835 0
          85.47743988 -2.896681579e-014 0 38.112949371 0.17507146299 0
          38.464668274 -1.9022250175 0 46.825183868 -1.307950139 0
          38.466953278 -1.7730156183 0 45.899066925 0.1910739392 0
          60.920387268 0.14465983212 0 53.920440674 -0.93712258339 0
          77.200218201 0.062002900988 0 60.499786377 -0.27857246995 0
          64.97580719 -0.14319716394 0 38.447971344 -1.6122169495 0
          54.092979431 0.22461791337 0 59.082962036 -0.5253995657 0
          77.151031494 -0.072472013533 0 65.113670349 0.089306525886 0
          46.750816345 -1.1196534634 0 0 0 0
          24.751808167 -1.6953970194 0 38.409076691 -1.4283715487 0
          22.891059875 0.13346746564 0 59.709030151 0.18976993859 0
          54.005378723 -0.7859903574 0 24.297849655 -1.7029793262 0
          85.556785583 -5.0899758177e-014 0 23.692996979 -1.6902010441 0
          19.605707169 0.24095521867 0 38.167980194 0.17779800296 0
          23.058460236 -1.6123422384 0 46.66122818 -0.93369615078 0
          77.241928101 0.053845383227 0 60.635147095 -0.23248878121 0
          60.989334106 0.13036425412 0 38.354873657 -1.231400013 0
          65.029205322 -0.12037694454 0 22.442468643 -1.4972541332 0
          59.254840851 -0.43638408184 0 45.838954926 0.18640580773 0
          77.200218201 -0.062002900988 0 54.057258606 -0.6484194994 0
          54.10521698 0.20930567384 0 21.873836517 -1.3551796675 0
          65.149658203 0.080018572509 0 38.291294098 -1.0320185423 0
          46.560756683 -0.75971144438 0 85.625846863 -7.4215021064e-014 0
          21.368240356 -1.1947481632 0 59.756355286 0.17429834604 0
          32.180812836 -0.55528336763 0 0 0 0
          31.440170288 -0.70556646585 0 22.701133728 0.15068897605 0
          60.747444153 -0.19489718974 0 19.647058487 0.26270189881 0
          30.386579514 -0.68639165163 0 59.391525269 -0.36036941409 0
          54.083816528 -0.52887111902 0 65.074287415 -0.1025416404 0
          38.22460556 -0.84077441692 0 29.314399719 -0.64713811874 0
          38.229450226 0.18601587415 0 77.278266907 0.047725435346 0
          20.933059692 -1.024960041 0 61.051437378 0.12167296559 0
          77.241928101 -0.053845383227 0 28.309394836 -0.59894359112 0
          46.454048157 -0.60526448488 0 45.788356781 0.19046528637 0
          54.126159668 0.20257227123 0 27.394933701 -0.54302376509 0
          65.184043884 0.074023142457 0 20.570083618 -0.85527771711 0
          38.160835266 -0.66693997383 0 85.686805725 -8.4412504927e-014 0
          59.499473572 -0.29829576612 0 60.841091156 -0.16581982374 0
          54.093170166 -0.42971485853 0 59.798122406 0.16598559916 0
          26.581628799 -0.48076158762 0 65.113670349 -0.089306525886 0
          0 0 0 46.345745087 -0.47526806593 0
          0 0 0 0 0 0
          22.485609055 0.17003262043 0 0 0 0
          19.709165573 0.28580084443 0 20.27702713 -0.69490939379 0
          77.31098175 0.043460641056 0 0 0 0
          38.292266846 0.19702339172 0 25.875606537 -0.4146848619 0
          77.278266907 -0.047725435346 0 61.109523773 0.11740292609 0
          38.105430603 -0.51752257347 0 0 0 0
          45.74666214 0.20037648082 0 59.584838867 -0.24997618794 0
          54.092945099 -0.35137426853 0 20.048530579 -0.551866889 0
          85.741691589 -7.7069840581e-014 0 25.278675079 -0.34828364849 0
          54.15581131 0.20191155374 0 65.218025208 0.070869624615 0
          46.240135193 -0.37183961272 0 60.920387268 -0.14465983212 0
          0 0 0 65.149658203 -0.080018572509 0
          38.062965393 -0.39661809802 0 0 0 0
          59.836582184 0.16309583187 0 0 0 0
          22.242515564 0.19095724821 0 24.78758812 -0.28534224629 0
          77.341560364 0.040968071669 0 19.795476913 0.30877035856 0
          19.87702179 -0.43211594224 0 77.31098175 -0.043460641056 0
          61.165599823 0.11661591381 0 0 0 0
          54.089694977 -0.29268959165 0 38.351451874 0.20912243426 0
          59.653133392 -0.21434983611 0 46.140724182 -0.29457759857 0
          45.713535309 0.21394109726 0 60.989334106 -0.13036425412 0
          38.03685379 -0.30524283648 0 85.792510986 -6.2126769929e-014 0
          24.393907547 -0.22928895056 0 0 0 0
          65.252334595 0.070225730538 0 54.193477631 0.20530299842 0
          19.753652573 -0.33902657032 0 65.184043884 -0.074023142457 0
          59.873268127 0.16421817243 0 77.371421814 0.040030874312 0
          0 0 0 54.08852005 -0.25139600039 0
          46.049995422 -0.24114477634 0 77.341560364 -0.040968071669 0
          24.084632874 -0.18271811306 0 0 0 0
          21.970598221 0.21319250762 0 38.029125214 -0.24165865779 0
          59.709030151 -0.18976993859 0 19.909732819 0.33093103766 0
          61.220993042 0.11853108555 0 61.051437378 -0.12167296559 0