<?xml version="1.0"?>
<VTKFile type="PolyData" version="0.1" byte_order="LittleEndian" compressor="vtkZLibDataCompressor">
  <PolyData>
    <Piece NumberOfPoints="1071" NumberOfVerts="0" NumberOfLines="0" NumberOfStrips="0" NumberOfPolys="2000">
      <PointData>
        <DataArray type="Float32" Name="PRESSURE" format="ascii" RangeMin="0" RangeMax="33140.199219">
          0 658.88275146 0 653.63909912 0 1278.9350586
          1270.7574463 634.62536621 1251.0784912 0 1886.7059326 1878.1654053
          619.01800537 1232.2459717 1859.4238281 0 2488.8037109 2480.8457031
          611.09613037 1840.7467041 2463.5205078 1220.6427002 2445.9729004 0
          3087.8022461 1827.894165 607.59716797 3080.6933594 3065.0119629 1214.5842285
          2432.9829102 3048.8925781 1820.371582 3685.1394043 0 605.94390869
          3678.8818359 1211.4364014 3664.8312988 2424.7468262 3036.2355957 3650.1318359
          1816.0828857 4281.7260742 0 3027.7214355 4276.2026367 604.46405029
          2419.6733398 3637.9470215 4263.574707 1208.8652344 4250.0922852 1812.7052002
          3022.1157227 3629.3686523 0 4878.1083984 2415.7268066 4873.1435547
          603.30773926 4238.3305664 4861.6010742 1206.7687988 3623.3742676 1809.9350586
          4849.0068359 4229.7524414 3017.7729492 2412.4934082 4837.5112305 0
          5474.5439453 5469.9370117 603.16290283 3618.7407227 5459.0791016 4223.4262695
          1206.2006836 3014.2285156 4828.8994141 5446.9775391 1808.9331055 5435.534668
          2411.1296387 4218.5498047 0 3614.9821777 6071.0654297 4822.2373047
          6066.6157227 603.42388916 6056.0288086 1206.4576416 5426.7944336 3012.5805664
          6044.0048828 1809.0969238 4214.6269531 4817.1225586 2411.1791992 6032.3798828
          5419.7519531 3613.1098633 6667.5429688 0 6663.0654297 603.16290283
          6652.3613281 6023.3813477 1206.2006836 3012.5180664 4813.0483398 1808.9331055
          5414.3735352 6640.0141602 4212.5683594 3612.942627 6015.8911133 2411.1296387
          6627.9750977 0 7263.7416992 603.30773926 5410.1333008 7259.0766602
          4810.8217773 6618.5698242 3012.5805664 1206.7687988 7247.9150391 6010.2036133
          4212.3022461 1809.9350586 7234.878418 6610.5522461 3613.1098633 2412.4934082
          7222.2080078 5407.7426758 6005.7651367 4810.4609375 0 7859.3681641
          3014.2285156 7212.2402344 6604.4995117 604.46405029 7854.3837891 4212.5683594
          7842.4814453 1208.8652344 1812.7052002 7828.4331055 3614.9821777 7203.6118164
          5407.2885742 6003.2045898 6599.8183594 7814.9355469 4810.8217773 2415.7268066
          7197.1298828 4214.6269531 7804.2495117 3017.7729492 0 8454.1044922
          8448.6972656 605.94390869 6002.6567383 1211.4364014 8435.8271484 5407.7426758
          6597.0742188 1816.0828857 3618.7407227 8420.4882813 7794.925293 4813.0483398
          7192.1567383 2419.6733398 8405.9892578 7787.9482422 4218.5498047 6003.2045898
          8394.4326172 3022.1157227 6596.4306641 5410.1333008 0 9047.6279297
          7189.2104492 9041.7167969 607.59716797 9027.7011719 1214.5842285 3623.3742676
          8384.3310547 4817.1225586 7782.6308594 1820.371582 9010.8330078 2424.7468262
          8995.1777344 6597.0742188 6005.7651367 7188.4682617 8376.7910156 4223.4262695
          5414.3735352 8982.6044922 3027.7214355 7779.4609375 0 9639.6191406
          611.09613037 9633.1425781 1220.6427002 4822.2373047 8371.0761719 9617.8398438
          8971.6484375 3629.3686523 6599.8183594 1827.894165 9599.2363281 7189.2104492
          6010.2036133 7778.6157227 9582.2890625 2432.9829102 8963.4794922 4229.7524414
          5419.7519531 8367.6601563 9568.5605469 3036.2355957 7192.1567383 8957.3173828
          10229.755859 4828.8994141 0 7779.4609375 6604.4995117 619.01800537
          10222.666016 3637.9470215 9556.6787109 1232.2459717 10205.96582 6015.8911133
          8366.7080078 10185.445313 1840.7467041 4238.3305664 2445.9729004 10167.084961
          9547.8173828 5426.7944336 8953.6328125 7197.1298828 7782.6308594 3048.8925781
          10152.075195 6610.5522461 8367.6601563 9541.1621094 4837.5112305 10817.702148
          0 3650.1318359 10809.959961 10139.204102 6023.3813477 634.62536621
          8952.5673828 1251.0784912 10791.772461 10769.179688 1859.4238281 5435.534668
          9537.1875 7787.9482422 10129.592773 4250.0922852 8371.0761719 2463.5205078
          7203.6118164 10749.301758 8953.6328125 6618.5698242 10732.897461 3065.0119629
          10122.407227 4849.0068359 6032.3798828 9536.0048828 3664.8312988 10718.986328
          0 11403.09082 653.63909912 11394.666992 8376.7910156 11374.921875
          1270.7574463 7794.925293 7212.2402344 8957.3173828 5446.9775391 1878.1654053
          11350.125977 10118.123047 4263.574707 10708.578125 9537.1875 2480.8457031
          6627.9750977 11328.646484 11310.756836 3080.6933594 10700.832031 4861.6010742
          6044.0048828 10116.817383 8384.3310547 8963.4794922 7804.2495117 11295.770508
          3678.8818359 9541.1621094 11985.503906 7222.2080078 0 658.88275146
          11976.37793 1278.9350586 11955.026367 5459.0791016 10696.223633 1886.7059326
          11927.932617 4276.2026367 10118.123047 11284.529297 6640.0141602 2488.8037109
          11904.791992 8971.6484375 8394.4326172 6056.0288086 10694.791016 4873.1435547
          11885.356445 11276.206055 7814.9355469 9547.8173828 3087.8022461 10122.407227
          7234.878418 3685.1394043 11869.282227 12564.458984 12554.62207 5469.9370117
          11271.262695 12531.642578 6652.3613281 10696.223633 11857.192383 4281.7260742
          8982.6044922 12502.203125 9556.6787109 8405.9892578 12477.380859 10129.592773
          7828.4331055 11269.701172 6066.6157227 4878.1083984 11848.287109 12456.378906
          7247.9150391 10700.832031 12439.233398 11843.006836 5474.5439453 9568.5605469
          8995.1777344 11271.262695 6663.0654297 13139.391602 13128.852539 8420.4882813
          10139.204102 13104.265625 12426.305664 10708.578125 13072.495117 7842.4814453
          13046.020508 11841.320313 6071.0654297 7259.0766602 12416.835938 11276.206055
          13023.485352 9582.2890625 9010.8330078 10152.075195 13005.329102 10718.986328
          8435.8271484 11843.006836 6667.5429688 12411.229492 13709.652344 7854.3837891
          11284.529297 13698.444336 13672.323242 12991.610352 13638.325195 12409.422852
          7263.7416992 11848.287109 13610.294922 10167.084961 9599.2363281 12981.620117
          9027.7011719 10732.897461 13586.330078 11295.770508 8448.6972656 12411.229492
          13567.274414 12975.717773 7859.3681641 11857.192383 14274.505859 14262.692383
          13552.856445 10185.445313 14235.185547 10749.301758 9617.8398438 12973.800781
          14199.168945 12416.835938 11310.756836 9041.7167969 14169.768555 13542.426758
          11869.282227 8454.1044922 14144.563477 12975.717773 12426.305664 13536.277344
          14124.783203 10205.96582 10769.179688 11328.646484 9633.1425781 14109.8125
          14833.137695 9047.6279297 11885.356445 14820.820313 12981.620117 13534.264648
          14792.168945 14754.478516 12439.233398 14099.0625 14724 10791.772461
          13536.277344 14697.845703 11350.125977 10222.666016 12991.610352 11904.791992
          9639.6191406 14092.731445 14677.59375 12456.378906 13542.426758 14662.280273
          15384.674805 14090.647461 15371.998047 13005.329102 15342.556641 15303.692383
          11374.921875 10809.959961 14651.364258 11927.932617 10229.755859 15272.560547
          12477.380859 14092.731445 13552.856445 15245.868164 14644.938477 13023.485352
          15225.488281 14099.0625 11394.666992 11955.026367 10817.702148 15210.111328
          14642.821289 13567.274414 15928.206055 12502.203125 15915.363281 15885.619141
          15846.260742 15199.228516 13046.020508 15815.050781 14109.8125 14644.938477
          15788.370117 13586.330078 15192.828125 11976.37793 11403.09082 12531.642578
          15768.311523 14651.364258 14124.783203 13072.495117 15190.731445 15753.238281
          16462.810547 16450.050781 13610.294922 16420.642578 15742.651367 16381.666992
          14662.280273 15192.828125 16351.129883 11985.503906 14144.563477 12554.62207
          13104.265625 16325.161133 15736.451172 13638.325195 15199.228516 16305.99707
          14677.59375 15734.432617 14169.768555 16291.697266 12564.458984 16987.59375
          16975.222656 15210.111328 16946.955078 13128.852539 16281.762695 14697.845703
          15736.451172 16909.455078 13672.323242 16880.535156 14199.168945 16275.99707
          16856.150391 15225.488281 15742.651367 16838.589844 14724 16274.115234
          13139.391602 13698.444336 16825.65625 15753.238281 17501.720703 14235.185547
          15245.868164 17490.101563 17463.964844 16275.99707 16816.830078 17429.259766
          14754.478516 17403.115234 16811.767578 15768.311523 17381.367188 16281.762695
          13709.652344 15272.560547 17366.283203 14262.692383 16810.09375 17355.433594
          14792.168945 16291.697266 15788.370117 18004.445313 16811.767578 17994.003906
          17348.242188 17971.175781 15303.692383 17940.832031 14274.505859 17918.859375
          16305.99707 17344.158203 15815.050781 16816.830078 17901.015625 14820.820313
          17889.441406 17342.808594 15342.556641 16325.161133 17881.507813 16825.65625
          15846.260742 17344.158203 18495.134766 17876.519531 18486.359375 14833.137695
          18468.232422 18444.072266 16838.589844 15371.998047 18427.935547 16351.129883
          17873.730469 17348.242188 18415.482422 15885.619141 18408.638672 17872.871094
          16856.150391 17355.433594 18404.583984 16381.666992 15384.674805 17873.730469
          18402.4375 18973.289063 15915.363281 18966.734375 18954.919922 17366.283203
          16880.535156 18939.052734 17876.519531 18401.384766 18930.697266 16420.642578
          18925.367188 18401.210938 17381.367188 18924.681641 15928.206055 17881.507813
          16909.455078 18925.648438 16450.050781 18401.384766 18927.1875 17403.115234
          19438.544922 19434.833984 17889.441406 19431.183594 16946.955078 19426.017578
          18402.4375 18928.505859 19427.695313 19431.482422 16462.810547 17901.015625
          18929.164063 17429.259766 19438.648438 18404.583984 16975.222656 19446.060547
          18928.505859 17918.859375 18408.638672 19452.441406 17463.964844 19890.666016
          19890.503906 19897.125 18927.1875 19905.396484 19456.875 19919.693359
          16987.59375 18415.482422 17940.832031 19934.914063 19458.460938 18925.648438
          17490.101563 19951.972656 19967.580078 19456.875 18427.935547 17971.175781
          18924.681641 19980.203125 20329.529297 20333.703125 20353.005859 17501.720703
          19452.441406 20377.822266 19988.423828 20407.740234 18444.072266 18925.367188
          20437.142578 17994.003906 19446.060547 19991.103516 20466.515625 20492.328125
          18930.697266 19988.423828 18468.232422 19438.648438 20512.597656 18004.445313
          20755.089844 19980.203125 20764.498047 20799.230469 20525.216797 20844.158203
          18939.052734 19431.482422 20893.232422 18486.359375 20940.085938 19967.580078
          20529.408203 20984.578125 19427.695313 18954.919922 20525.216797 21022.761719
          19951.972656 18495.134766 21052.042969 20512.597656 21167.347656 19426.017578
          21183.017578 21236.330078 21070.009766 19934.914063 18966.734375 21305.478516
          21377.849609 20492.328125 21076.382813 21445.957031 21508.78125 19431.183594
          19919.693359 18973.289063 21070.009766 20466.515625 21561.851563 21601.953125
          21052.042969 19905.396484 19434.833984 20437.142578 21566.292969 21589.396484
          21627.001953 21664.888672 21762.947266 21863.339844 21022.761719 21636.21875
          21957.03125 19897.125 20407.740234 19438.544922 22042.107422 21627.001953
          20984.578125 22113.511719 22167.384766 20377.822266 19890.503906 21601.953125
          20940.085938 21951.830078 21983.703125 22201.828125 22085.458984 22217.689453
          21561.851563 22351.414063 20353.005859 22214.300781 19890.666016 22475.818359
          20893.232422 22588.341797 21508.78125 22201.828125 22682.976563 20333.703125
          20844.158203 22754.720703 22167.384766 21445.957031 22800.558594 22323.71875
          22365.882813 22498.523438 22670.824219 22113.511719 20799.230469 20329.529297
          22844.117188 21377.849609 22816.621094 23005.826172 23152.638672 22042.107422
          22800.558594 23276.599609 20764.498047 21305.478516 22754.720703 23370.582031
          21957.03125 23429.089844 22681.494141 22735.720703 21236.330078 22904.498047
          22682.976563 20755.089844 23123.650391 21863.339844 23344.279297 23449.525391
          23551.886719 22588.341797 23741.089844 23429.089844 21183.017578 21762.947266
          23901.105469 22475.818359 23370.582031 24021.677734 21167.347656 24094.853516
          21664.888672 23024.371094 23276.599609 23092.734375 23303.570313 22351.414063
          23577.378906 24121.095703 23854.792969 24118.414063 23152.638672 21589.396484
          24359.099609 24094.853516 22217.689453 24563.550781 23005.826172 24021.677734
          24717.173828 21566.292969 22085.458984 24810.384766 23901.105469 23351.050781
          22844.117188 23435.869141 23695.052734 24031.712891 24843.896484 24376.025391
          23741.089844 24706.808594 21983.703125 24810.384766 22670.824219 25011.158203
          25273.121094 23551.886719 24717.173828 21951.830078 25471.886719 22498.523438
          25594.857422 24563.550781 23344.279297 23659.347656 23762.990234 24076.224609
          24482.841797 25636.439453 24904.337891 22365.882813 24359.099609 25316.953125
          23123.650391 25594.857422 25704.140625 24118.414063 26043.251953 25471.886719
          22323.71875 22904.498047 26305.986328 25273.121094 23854.792969 26469.685547
          23945.742188 24070.320313 24441.388672 26520.882813 24923.455078 22735.720703
          25435.509766 25011.158203 23577.378906 25952.917969 26469.685547 26450.931641
          24706.808594 22681.494141 26893.242188 26305.986328 23303.570313 27243.253906
          24376.025391 26043.251953 27456.128906 24204.873047 24352.101563 23092.734375
          24781.71875 27521.251953 25344.480469 25704.140625 25966.519531 24031.712891
          26621.134766 27456.128906 27267.498047 23024.371094 25316.953125 27847.316406
          23695.052734 27243.253906 28311.617188 24904.337891 26893.242188 28578.054688
          23435.869141 24428.818359 24600.693359 25084.183594 28652.974609 26450.931641
          25728.691406 24482.841797 26477.826172 27306.927734 28578.054688 23351.050781
          28152.21875 25952.917969 24076.224609 28921.710938 28311.617188 29542.027344
          25435.509766 27847.316406 29889.582031 23762.990234 24603.679688 24805.291016
          29993.611328 27267.498047 25315.691406 24923.455078 26026.566406 26915.949219
          29889.582031 23659.347656 27990.976563 26621.134766 29159.988281 24441.388672
          29542.027344 30179.820313 30947.861328 25966.519531 28921.710938 24070.320313
          31390.09375 25344.480469 24703.367188 28152.21875 24912.839844 31533.830078
          25422.625 26184.330078 27210.841797 23945.742188 31390.09375 28570.271484
          27306.927734 24781.71875 30294.207031 30947.861328 31649.958984 26477.826172
          32491.839844 30179.820313 24352.101563 32990.160156 25728.691406 29159.988281
          33140.199219 24204.873047 32990.160156 27990.976563 25084.183594 32491.839844
          26915.949219 24600.693359 31649.958984 26026.566406 30294.207031 24428.818359
          25315.691406 28570.271484 27210.841797 24805.291016 26184.330078 24603.679688
          25422.625 24912.839844 24703.367188
        </DataArray>
        <DataArray type="Float32" Name="VELOCITY" NumberOfComponents="3" ComponentName0="X-VELOCITY" ComponentName1="Y-VELOCITY" ComponentName2="Z-VELOCITY" format="ascii" RangeMin="0" RangeMax="84.203414917">
          0 0 0 0 0 0
          23.601034164 0.39485114813 0 23.165985107 0.32118269801 0
          18.468173981 0.90161478519 0 0 0 0
          22.667949677 0.253947258 0 18.1765728 0.72263842821 0
          17.923923492 0.57779115438 0 36.454879761 1.0472002029 0
          0 0 0 22.234882355 0.1934030056 0
          36.280628204 0.89661580324 0 36.123523712 0.72289216518 0
          17.721687317 0.44716313481 0 44.30406189 1.1086544991 0
          0 0 0 21.892934799 0.1405685842 0
          44.325080872 0.97118234634 0 35.989151001 0.56471943855 0
          17.559532166 0.3344425559 0 44.281093597 0.81886744499 0
          35.879581451 0.42623099685 0 51.256195068 1.0146057606 0
          0 0 0 44.202903748 0.66547298431 0
          51.424766541 0.91619896889 0 21.633321762 0.098092481494 0
          17.43217659 0.24195635319 0 51.553356171 0.80372083187 0
          44.107551575 0.52344977856 0 35.793136597 0.30994716287 0
          51.641464233 0.68147832155 0 0 0 0
          55.693969727 0.77485233545 0 55.972229004 0.6964712739 0
          21.439588547 0.0669336766 0 56.237266541 0.61572688818 0
          17.33527565 0.17152604461 0 51.693317413 0.56148386002 0
          44.005386353 0.39894139767 0 35.728599548 0.21746069193 0
          56.471866608 0.53151619434 0 0 0 0
          57.101268768 0.47334456444 0 51.716331482 0.45141559839 0
          21.293756485 0.046644743532 0 57.336639404 0.42755231261 0
          56.669017792 0.44756025076 0 43.902816772 0.29517161846 0
          17.263973236 0.12309706956 0 57.554256439 0.37364584208 0
          35.68547821 0.14864885807 0 57.749694824 0.32140883803 0
          56.828998566 0.36838442087 0 51.718341827 0.35572108626 0
          62.065563202 0.2651514709 0 0 0 0
          57.920539856 0.27069717646 0 21.178592682 0.035945858806 0
          62.206108093 0.25048008561 0 43.804016113 0.21313865483 0
          17.212915421 0.094740010798 0 62.318225861 0.22141614556 0
          56.955467224 0.29735177755 0 62.40871048 0.19093453884 0
          35.663391113 0.10158209503 0 51.706741333 0.27648046613 0
          58.065940857 0.2232003212 0 62.482036591 0.16094076633 0
          43.711654663 0.15199866891 0 74.147125244 0.14165812731 0
          0 0 0 21.078884125 0.033117931336 0
          74.277511597 0.13687422872 0 58.186908722 0.18060187995 0
          17.176980972 0.083131119609 0 57.053470612 0.23650255799 0
          74.391967773 0.12567473948 0 62.540611267 0.13280315697 0
          51.688018799 0.21395052969 0 35.66147995 0.072927705944 0
          74.49030304 0.1112472713 0 43.627185822 0.10953227431 0
          74.572776794 0.095977172256 0 58.28578949 0.14409448206 0
          82.243331909 1.304110357e-013 0 62.586452484 0.10752809048 0
          0 0 0 57.12834549 0.18664708734 0
          20.982158661 0.036301672459 0 82.391555786 1.228127978e-013 0
          17.152017593 0.084208838642 0 82.535316467 1.1314324586e-013 0
          51.66753006 0.16704644263 0 74.640403748 0.081083603203 0
          35.678050995 0.058584224433 0 82.667427063 9.0871043058e-014 0
          62.621685028 0.085774280131 0 58.365711212 0.11423385143 0
          82.784934998 6.9377568469e-014 0 43.551025391 0.082681804895 0
          57.185157776 0.14758773148 0 74.694625854 0.067311562598 0
          0 0 0 74.147125244 -0.14165812731 0
          20.878938675 0.043723523617 0 74.277511597 -0.13687422872 0
          17.135293961 0.09381634742 0 51.649349213 0.13379959762 0
          74.391967773 -0.12567473948 0 82.887054443 5.7792014447e-014 0
          62.648525238 0.067841172218 0 74.49030304 -0.1112472713 0
          58.430118561 0.090974718332 0 35.710510254 0.054330598563 0
          74.737205505 0.055121846497 0 82.974235535 5.5764796941e-014 0
          57.228347778 0.1183917895 0 74.572776794 -0.095977172256 0
          43.482780457 0.068072222173 0 62.065563202 -0.2651514709 0
          0 0 0 62.206108093 -0.25048008561 0
          62.669147491 0.053696230054 0 20.762613297 0.053860832006 0
          74.77003479 0.044752344489 0 51.636306763 0.11177885532 0
          74.640403748 -0.081083603203 0 62.318225861 -0.22141614556 0
          17.125621796 0.10822182894 0 58.482410431 0.073797546327 0
          83.047683716 6.4021182832e-014 0 62.40871048 -0.19093453884 0
          35.755458832 0.056349057704 0 57.261608124 0.097674638033 0
          74.694625854 -0.067311562598 0 62.482036591 -0.16094076633 0
          43.421504974 0.062438622117 0 74.795051575 0.036257095635 0
          62.685546875 0.043049015105 0 83.109046936 4.9751147619e-014 0
          57.101268768 -0.47334456444 0 0 0 0
          62.540611267 -0.13280315697 0 51.630073547 0.09844891727 0
          58.52571106 0.061878774315 0 57.336639404 -0.42755231261 0
          20.629013062 0.065548345447 0 74.737205505 -0.055121846497 0
          17.123209 0.12446110696 0 57.554256439 -0.37364584208 0
          57.749694824 -0.32140883803 0 35.808937073 0.061556614935 0
          62.586452484 -0.10752809048 0 57.287830353 0.083863265812 0
          83.160148621 1.5067157591e-014 0 74.814071655 0.029557147995 0
          62.699390411 0.035456985235 0 43.366024017 0.062921710312 0
          74.77003479 -0.044752344489 0 57.920539856 -0.27069717646 0
          58.562709808 0.054266486317 0 62.621685028 -0.085774280131 0
          51.631351471 0.091444835067 0 58.065940857 -0.2232003212 0
          55.693969727 -0.77485233545 0 0 0 0
          20.475818634 0.078024975955 0 55.972229004 -0.6964712739 0
          83.202842712 -1.992439857e-014 0 56.237266541 -0.61572688818 0
          17.129404068 0.14049045742 0 74.795051575 -0.036257095635 0
          74.828712463 0.024497417733 0 56.471866608 -0.53151619434 0
          58.186908722 -0.18060187995 0 35.866714478 0.067741885781 0
          57.309143066 0.075412914157 0 62.648525238 -0.067841172218 0
          62.711982727 0.030425639823 0 56.669017792 -0.44756025076 0
          43.315193176 0.06722881645 0 58.595569611 0.050020102412 0
          58.28578949 -0.14409448206 0 74.814071655 -0.029557147995 0
          51.640075684 0.088752873242 0 56.828998566 -0.36838442087 0
          83.238891602 -6.8346498979e-014 0 62.669147491 -0.053696230054 0
          51.256195068 -1.0146057606 0 0 0 0
          74.840370178 0.020883522928 0 20.301897049 0.090923763812 0
          51.424766541 -0.91619896889 0 17.146371841 0.15517295897 0
          51.553356171 -0.80372083187 0 56.955467224 -0.29735177755 0
          57.327041626 0.070953652263 0 58.365711212 -0.11423385143 0
          62.724239349 0.027461277321 0 51.641464233 -0.68147832155 0
          35.924568176 0.073544882238 0 51.693317413 -0.56148386002 0
          43.268112183 0.073680877686 0 74.828712463 -0.024497417733 0
          62.685546875 -0.043049015105 0 83.269920349 -1.1434898709e-013 0
          58.625972748 0.048283986747 0 57.053470612 -0.23650255799 0
          58.430118561 -0.090974718332 0 51.655612946 0.088798984885 0
          51.716331482 -0.45141559839 0 74.850204468 0.018483273685 0
          44.30406189 -1.1086544991 0 0 0 0
          44.325080872 -0.97118234634 0 20.106695175 0.10421480238 0
          44.281093597 -0.81886744499 0 57.12834549 -0.18664708734 0
          62.736797333 0.026070676744 0 17.17682457 0.16814446449 0
          57.342536926 0.069358944893 0 51.718341827 -0.35572108626 0
          62.699390411 -0.035456985235 0 44.202903748 -0.66547298431 0
          35.978542328 0.078335009515 0 74.840370178 -0.020883522928 0
          58.482410431 -0.073797546327 0 83.297325134 -1.512115628e-013 0
          43.224254608 0.081176355481 0 44.107551575 -0.52344977856 0
          58.655185699 0.048304393888 0 51.706741333 -0.27648046613 0
          57.185157776 -0.14758773148 0 74.859169006 0.017017381266 0
          51.676971436 0.090459160507 0 44.005386353 -0.39894139767 0
          62.711982727 -0.030425639823 0 62.750072479 0.025760723278 0
          0 0 0 51.688018799 -0.21395052969 0
          36.454879761 -1.0472002029 0 74.850204468 -0.018483273685 0
          58.52571106 -0.061878774315 0 36.280628204 -0.89661580324 0
          19.889749527 0.11811605841 0 43.902816772 -0.29517161846 0
          57.356315613 0.069754987955 0 36.123523712 -0.72289216518 0
          17.223766327 0.17961332202 0 57.228347778 -0.1183917895 0
          83.322212219 -1.4758623468e-013 0 36.025093079 0.082041211426 0
          35.989151001 -0.56471943855 0 43.804016113 -0.21313865483 0
          35.879581451 -0.42623099685 0 43.183513641 0.089103810489 0
          58.684188843 0.04944255203 0 51.66753006 -0.16704644263 0
          74.867950439 0.016192920506 0 58.562709808 -0.054266486317 0
          62.724239349 -0.027461277321 0 35.793136597 -0.30994716287 0
          51.702964783 0.093016028404 0 57.261608124 -0.097674638033 0
          74.859169006 -0.017017381266 0 62.764308929 0.026108026505 0
          43.711654663 -0.15199866891 0 0 0 0
          18.468173981 -0.90161478519 0 35.728599548 -0.21746069193 0
          19.650365829 0.13298849761 0 57.368930817 0.071508660913 0
          51.649349213 -0.13379959762 0 18.1765728 -0.72263842821 0
          83.34538269 -1.4344681855e-013 0 17.923923492 -0.57779115438 0
          17.290313721 0.19014206529 0 36.061191559 0.08497595042 0
          17.721687317 -0.44716313481 0 43.627185822 -0.10953227431 0
          74.876998901 0.015799952671 0 58.595569611 -0.050020102412 0
          58.713699341 0.051232550293 0 35.68547821 -0.14864885807 0
          62.736797333 -0.026070676744 0 17.559532166 -0.3344425559 0
          57.287830353 -0.083863265812 0 43.146198273 0.097230412066 0
          74.867950439 -0.016192920506 0 51.636306763 -0.11177885532 0
          51.73236084 0.096088401973 0 17.43217659 -0.24195635319 0
          62.779556274 0.02689062804 0 35.663391113 -0.10158209503 0
          43.551025391 -0.082681804895 0 83.367378235 -1.4378414095e-013 0
          17.33527565 -0.17152604461 0 57.380878448 0.074221797287 0
          23.601034164 -0.39485114813 0 0 0 0
          23.165985107 -0.32118269801 0 19.387479782 0.14923012257 0
          58.625972748 -0.048283986747 0 17.379501343 0.2004467994 0
          22.667949677 -0.253947258 0 57.309143066 -0.075412914157 0
          51.630073547 -0.09844891727 0 62.750072479 -0.025760723278 0
          35.66147995 -0.072927705944 0 22.234882355 -0.1934030056 0
          36.084365845 0.087677828968 0 74.886558533 0.015799151734 0
          17.263973236 -0.12309706956 0 58.744171143 0.05345961079 0
          74.876998901 -0.015799952671 0 21.892934799 -0.1405685842 0
          43.482780457 -0.068072222173 0 43.112953186 0.10558447242 0
          51.763999939 0.099552497268 0 21.633321762 -0.098092481494 0
          62.795677185 0.028149187565 0 17.212915421 -0.094740010798 0
          35.678050995 -0.058584224433 0 83.388694763 -1.2196175331e-013 0
          57.327041626 -0.070953652263 0 58.655185699 -0.048304393888 0
          51.631351471 -0.091444835067 0 57.392608643 0.077722482383 0
          21.439588547 -0.0669336766 0 62.764308929 -0.026108026505 0
          0 0 0 43.421504974 -0.062438622117 0
          0 0 0 0 0 0
          19.09967804 0.16717961431 0 0 0 0
          17.494123459 0.21123410761 0 17.176980972 -0.083131119609 0
          74.896842957 0.016272345558 0 0 0 0
          36.092700958 0.090782597661 0 21.293756485 -0.046644743532 0
          74.886558533 -0.015799151734 0 58.775753021 0.056153852493 0
          35.710510254 -0.054330598563 0 0 0 0
          43.084712982 0.11434329301 0 57.342536926 -0.069358944893 0
          51.640075684 -0.088752873242 0 17.152017593 -0.084208838642 0
          83.409896851 -9.142111303e-014 0 21.178592682 -0.035945858806 0
          51.796798706 0.10346438736 0 62.812480927 0.030027318746 0
          43.366024017 -0.062921710312 0 58.684188843 -0.04944255203 0
          0 0 0 62.779556274 -0.02689062804 0
          35.755458832 -0.056349057704 0 0 0 0
          57.404491425 0.082015223801 0 0 0 0
          18.785369873 0.18703627586 0 21.078884125 -0.033117931336 0
          74.908195496 0.017205195501 0 17.636529922 0.22308301926 0
          17.135293961 -0.09381634742 0 74.896842957 -0.016272345558 0
          58.808418274 0.059417292476 0 0 0 0
          51.655612946 -0.088798984885 0 36.084827423 0.094922855496 0
          57.356315613 -0.069754987955 0 43.315193176 -0.06722881645 0
          43.06255722 0.12373720109 0 58.713699341 -0.051232550293 0
          35.808937073 -0.061556614935 0 83.431549072 -6.9372425285e-014 0
          20.982158661 -0.036301672459 0 0 0 0
          62.829990387 0.032442148775 0 51.829799652 0.10798939317 0
          17.125621796 -0.10822182894 0 62.795677185 -0.028149187565 0
          57.416900635 0.087167158723 0 74.921028137 0.018298273906 0
          0 0 0 51.676971436 -0.090459160507 0
          43.268112183 -0.073680877686 0 74.908195496 -0.017205195501 0
          20.878938675 -0.043723523617 0 0 0 0
          18.443042755 0.20880050957 0 35.866714478 -0.067741885781 0
          57.368930817 -0.071508660913 0 17.80843544 0.23637074232 0
          58.842277527 0.063167884946 0 58.744171143 -0.05345961079 0
          36.059951782 0.10065402836 0 17.123209 -0.12446110696 0
          43.047634125 0.13398183882 0 83.453849792 -4.8596638324e-014 0
          0 0 0 20.762613297 -0.053860832006 0
          62.848587036 0.034926898777 0 62.812480927 -0.030027318746 0
          51.862171173 0.11333622038 0 43.224254608 -0.081176355481 0
          35.924568176 -0.073544882238 0 51.702964783 -0.093016028404 0
          57.430355072 0.093164712191 0 57.380878448 -0.074221797287 0
          17.129404068 -0.14049045742 0 74.921028137 -0.018298273906 0
          0 0 0 74.935539246 0.01911496371 0
          0 0 0 20.629013062 -0.065548345447 0
          58.775753021 -0.056153852493 0 18.071588516 0.2322371155 0
          18.010700226 0.25123602152 0 58.877796173 0.067061141133 0
          36.017845154 0.10840454698 0 83.476493835 -2.2994413584e-014 0