<?xml version="1.0"?>
<VTKFile type="PolyData" version="0.1" byte_order="LittleEndian" compressor="vtkZLibDataCompressor">
  <PolyData>
    <Piece NumberOfPoints="1071" NumberOfVerts="0" NumberOfLines="0" NumberOfStrips="0" NumberOfPolys="2000">
      <PointData>
        <DataArray type="Float32" Name="PRESSURE" format="ascii" RangeMin="0" RangeMax="4984.3476563">
          0 95.086387634 0 93.418304443 0 185.39297485
          182.88552856 90.586112976 179.88316345 0 274.09552002 271.16213989
          91.75680542 182.14651489 267.93890381 0 361.70236206 358.24847412
          92.437934875 270.78439331 354.50280762 183.21652222 357.34765625 0
          447.90634155 271.75036621 92.402557373 443.80209351 439.33010864 183.12588501
          357.82522583 441.70495605 271.29876709 532.36560059 0 91.15423584
          527.543396 181.23736572 522.23657227 356.90405273 441.45599365 523.82037354
          268.94308472 614.83953857 0 440.10043335 609.30023193 90.170318604
          354.2300415 522.75335693 603.12310791 179.28619385 603.72680664 266.5390625
          437.27267456 521.09960938 0 695.19238281 351.63330078 688.9979248
          90.069480896 601.87512207 681.97839355 178.16621399 518.2991333 264.715271
          681.51635742 600.12060547 434.60061646 349.434021 679.00952148 0
          773.39416504 766.65484619 89.635864258 515.62182617 758.87506104 597.5322876
          177.35177612 432.24023438 677.37573242 757.33856201 263.41101074 754.3717041
          347.82290649 594.91998291 0 513.23205566 849.52227783 675.17529297
          842.38232422 89.163085938 833.96801758 176.95448303 753.07220459 430.56872559
          831.40704346 263.0874939 592.58770752 672.71008301 347.57357788 828.21038818
          751.41522217 511.69119263 923.76391602 0 916.38769531 89.635864258
          907.4979248 827.42559814 177.35177612 430.43170166 670.49719238 263.41101074
          749.18743896 904.01098633 591.28424072 511.70019531 826.44030762 347.82290649
          900.81970215 0 996.4196167 90.069480896 747.14123535 988.97918701
          669.4710083 900.68029785 430.56872559 178.16621399 979.79602051 824.54223633
          591.45202637 264.715271 975.52441406 900.46331787 511.69119263 349.434021
          972.55163574 746.39752197 822.70568848 669.79382324 0 1067.9012451
          432.24023438 973.13006592 898.98547363 90.170318604 1060.565918 591.28424072
          1051.2860107 179.28619385 266.5390625 1046.4080811 513.23205566 973.74206543
          746.8649292 822.23999023 897.40368652 1043.8218994 669.4710083 351.63330078
          972.76849365 592.58770752 1045.1295166 434.60061646 0 1138.7180176
          1131.6456299 91.15423584 822.84161377 181.23736572 1122.4727783 746.39752197
          897.21356201 268.94308472 515.62182617 1117.1954346 1046.5870361 670.49719238
          971.48822021 354.2300415 1115.1025391 1046.1845703 594.91998291 822.23999023
          1117.088501 437.27267456 897.94030762 747.14123535 0 1209.4455566
          971.57147217 1202.7753906 92.402557373 1193.9116211 183.12588501 518.2991333
          1119.3522949 672.71008301 1045.2462158 271.29876709 1188.4564209 356.90405273
          1186.8914795 897.21356201 822.70568848 972.41473389 1119.5540771 597.5322876
          749.18743896 1189.4453125 440.10043335 1045.5943604 0 1280.6772461
          92.437934875 1274.5220947 183.21652222 675.17529297 1118.9793701 1266.1563721
          1192.40979 521.09960938 897.40368652 271.75036621 1260.7392578 971.57147217
          824.54223633 1046.5438232 1259.6628418 357.82522583 1193.1998291 600.12060547
          751.41522217 1119.5715332 1262.621582 441.45599365 971.48822021 1192.9815674
          1352.9642334 677.37573242 0 1045.5943604 898.98547363 91.75680542
          1347.402832 522.75335693 1266.1130371 182.14651489 1339.6954346 826.44030762
          1120.6131592 1334.5018311 270.78439331 601.87512207 357.34765625 1333.8078613
          1267.418335 753.07220459 1193.7806396 972.76849365 1045.2462158 441.70495605
          1336.9707031 900.46331787 1119.5715332 1267.5166016 679.00952148 1426.755249
          0 523.82037354 1421.8249512 1340.7592773 827.42559814 90.586112976
          1194.895874 179.88316345 1414.8896484 1410.0496826 267.93890381 754.3717041
          1268.4693604 1046.1845703 1342.4553223 603.72680664 1118.9793701 354.50280762
          973.74206543 1409.5839844 1193.7806396 900.68029785 1412.7327881 439.33010864
          1342.7995605 681.51635742 828.21038818 1269.6340332 522.23657227 1416.5582275
          0 1502.3499756 93.418304443 1498.0411377 1119.5540771 1491.9304199
          182.88552856 1046.5870361 973.13006592 1192.9815674 757.33856201 271.16213989
          1487.5004883 1343.840332 603.12310791 1418.4842529 1268.4693604 358.24847412
          900.81970215 1487.0858154 1490.0102539 443.80209351 1418.982666 681.97839355
          831.40704346 1345.0251465 1119.3522949 1193.1998291 1045.1295166 1493.612793
          527.543396 1267.5166016 1579.875 972.55163574 0 95.086387634
          1576.1306152 185.39297485 1570.8273926 758.87506104 1420.0394287 274.09552002
          1566.7821045 609.30023193 1343.840332 1495.5939941 904.01098633 361.70236206
          1566.2454834 1192.40979 1117.088501 833.96801758 1421.2111816 688.9979248
          1568.7646484 1496.145874 1043.8218994 1267.418335 447.90634155 1342.7995605
          975.52441406 532.36560059 1571.9161377 1659.2869873 1656.0079346 766.65484619
          1497.1479492 1651.4282227 907.4979248 1420.0394287 1573.7852783 614.83953857
          1189.4453125 1647.6630859 1266.1130371 1115.1025391 1646.8586426 1342.4553223
          1046.4080811 1498.2718506 842.38232422 695.19238281 1574.2929688 1648.8363037
          979.79602051 1418.982666 1651.3616943 1575.1766357 773.39416504 1262.621582
          1186.8914795 1497.1479492 916.38769531 1740.3988037 1737.4558105 1117.1954346
          1340.7592773 1733.4611816 1652.9765625 1418.4842529 1729.805542 1051.2860107
          1728.62854 1576.220459 849.52227783 988.97918701 1653.3537598 1496.145874
          1729.9771729 1259.6628418 1188.4564209 1336.9707031 1731.7658691 1416.5582275
          1122.4727783 1575.1766357 923.76391602 1654.0665283 1822.9200439 1060.565918
          1495.5939941 1820.1687012 1816.5875244 1733.0194092 1812.8251953 1655.0037842
          996.4196167 1574.2929688 1811.215332 1333.8078613 1260.7392578 1733.1954346
          1193.9116211 1412.7327881 1811.8912354 1493.612793 1131.6456299 1654.0665283
          1812.8967285 1733.6972656 1067.9012451 1573.7852783 1906.501709 1903.7989502
          1813.7199707 1334.5018311 1900.4510498 1409.5839844 1266.1563721 1734.5109863
          1896.3447266 1653.3537598 1490.0102539 1202.7753906 1894.2802734 1813.6420898
          1571.9161377 1138.7180176 1894.2716064 1733.6972656 1652.9765625 1813.9100342
          1894.5025635 1339.6954346 1410.0496826 1487.0858154 1274.5220947 1894.8635254
          1990.7731934 1209.4455566 1568.7646484 1987.9916992 1733.1954346 1814.5917969
          1984.7119141 1980.0285645 1651.3616943 1894.5014648 1977.5150146 1414.8896484
          1813.9100342 1976.8283691 1487.5004883 1347.402832 1733.0194092 1566.2454834
          1280.6772461 1894.5334473 1976.3359375 1648.8363037 1813.6420898 1976.2349854
          2075.3686523 1895.0803223 2072.4069824 1731.7658691 2069.064209 2063.5986328
          1491.9304199 1421.8249512 1975.5861816 1566.7821045 1352.9642334 2060.6557617
          1646.8586426 1894.5334473 1813.7199707 2059.3054199 1975.4006348 1729.9771729
          2058.1682129 1894.5014648 1498.0411377 1570.8273926 1426.755249 2057.6320801
          1975.8109131 1812.8967285 2159.9370117 1647.6630859 2156.7258301 2153.2363281
          2146.8303223 2056.7199707 1728.62854 2143.4836426 1894.8635254 1975.4006348
          2141.4853516 1811.8912354 2056.3422852 1576.1306152 1502.3499756 1651.4282227
          2139.7971191 1975.5861816 1894.5025635 1729.805542 2056.6174316 2138.8684082
          2244.1420898 2240.6469727 1811.215332 2236.979248 2137.7265625 2229.5395508
          1976.2349854 2056.3422852 2225.8154297 1579.875 1894.2716064 1656.0079346
          1733.4611816 2223.1889648 2137.1723633 1812.8251953 2056.7199707 2221.0483398
          1976.3359375 2137.3244629 1894.2802734 2219.7753906 1659.2869873 2327.6525879
          2323.875 2057.6320801 2320.0524902 1737.4558105 2218.4260254 1976.8283691
          2137.1723633 2311.5651855 1816.5875244 2307.4956055 1896.3447266 2217.699707
          2304.2709961 2058.1682129 2137.7265625 2301.7773438 1977.5150146 2217.7563477
          1740.3988037 1820.1687012 2300.206543 2138.8684082 2410.1330566 1900.4510498
          2059.3054199 2406.1096191 2402.2097168 2217.699707 2298.6599121 2392.7541504
          1980.0285645 2388.3845215 2297.7834473 2139.7971191 2384.6101074 2218.4260254
          1822.9200439 2060.6557617 2381.8649902 1903.7989502 2297.7768555 2380.0529785
          1984.7119141 2219.7753906 2141.4853516 2491.2370605 2297.7834473 2487.0393066
          2378.3449707 2483.1923828 2063.5986328 2472.9501953 1906.501709 2468.3474121
          2221.0483398 2377.3886719 2143.4836426 2298.6599121 2464.0996094 1987.9916992
          2461.2155762 2377.329834 2069.064209 2223.1889648 2459.2529297 2300.206543
          2146.8303223 2377.3886719 2570.6074219 2457.4926758 2566.340332 1990.7731934
          2562.7302246 2551.9904785 2301.7773438 2072.4069824 2547.2529297 2225.8154297
          2456.5563965 2378.3449707 2542.6467285 2153.2363281 2539.7612305 2456.423584
          2304.2709961 2380.0529785 2537.7893066 2229.5395508 2075.3686523 2456.5563965
          2536.1416016 2647.8847656 2156.7258301 2643.685791 2640.552002 2381.8649902
          2307.4956055 2629.7121582 2457.4926758 2535.2749023 2624.987793 2236.979248
          2620.1960449 2535.0532227 2384.6101074 2617.4750977 2159.9370117 2459.2529297
          2311.5651855 2615.6591797 2240.6469727 2535.2749023 2614.239502 2388.3845215
          2722.7255859 2718.762207 2461.2155762 2716.4052734 2320.0524902 2705.972168
          2536.1416016 2613.3950195 2701.484375 2696.7519531 2244.1420898 2464.0996094
          2613.1467285 2392.7541504 2694.3789063 2537.7893066 2323.875 2692.8464355
          2613.3950195 2468.3474121 2539.7612305 2691.637207 2402.2097168 2794.8215332
          2791.2880859 2790.0744629 2614.239502 2780.6625977 2690.7751465 2776.7275391
          2327.6525879 2542.6467285 2472.9501953 2772.3588867 2690.6506348 2615.6591797
          2406.1096191 2770.5131836 2769.3505859 2690.7751465 2547.2529297 2483.1923828
          2617.4750977 2768.3098145 2863.916748 2861.0288086 2861.3911133 2410.1330566
          2691.637207 2853.7053223 2767.5981445 2850.7084961 2551.9904785 2620.1960449
          2847.0256348 2487.0393066 2692.8464355 2767.7175293 2845.9069824 2845.2932129
          2624.987793 2767.5981445 2562.7302246 2694.3789063 2844.6396484 2491.2370605
          2929.8188477 2768.3098145 2927.8046875 2930.2321777 2844.4677734 2925.0258789
          2629.7121582 2696.7519531 2923.3771973 2566.340332 2920.708252 2769.3505859
          2844.7597656 2920.6386719 2701.484375 2640.552002 2844.4677734 2921.0249023
          2770.5131836 2570.6074219 2921.3469238 2844.6396484 2992.4006348 2705.972168
          2991.4921875 2996.517334 2921.9702148 2772.3588867 2643.685791 2994.5566406
          2994.7084961 2845.2932129 2922.1953125 2993.4865723 2995.0004883 2716.4052734
          2776.7275391 2647.8847656 2921.9702148 2845.9069824 2997.0441895 2998.9162598
          2921.3469238 2780.6625977 2718.762207 2847.0256348 3051.5981445 3052.0288086
          3000.0949707 3060.2263184 3062.3110352 3064.8859863 2921.0249023 3000.137207
          3065.8007813 2790.0744629 2850.7084961 2722.7255859 3069.5266113 3000.0949707
          2920.6386719 3073.6804199 3077.1325684 2853.7053223 2791.2880859 2998.9162598
          2920.708252 3107.3972168 3109.4050293 3078.4550781 3121.4013672 3128.4306641
          2997.0441895 3134.3254395 2861.3911133 3078.5769043 2794.8215332 3138.2583008
          2923.3771973 3144.6000977 2995.0004883 3078.4550781 3150.876709 2861.0288086
          2925.0258789 3155.6279297 3077.1325684 2993.4865723 3157.5444336 3159.7978516
          3163.6184082 3180.0683594 3193.0012207 3073.6804199 2930.2321777 2863.916748
          3203.1867676 2994.7084961 3158.2294922 3210.8168945 3219.9943848 3069.5266113
          3157.5444336 3228.6157227 2927.8046875 2994.5566406 3155.6279297 3235.2492676
          3065.8007813 3239.6386719 3208.7556152 3214.5847168 2996.517334 3236.0556641
          3150.876709 2929.8188477 3255.6376953 3064.8859863 3270.706543 3241.2001953
          3282.3947754 3144.6000977 3295.3710938 3239.6386719 2991.4921875 3062.3110352
          3307.8352051 3138.2583008 3235.2492676 3318.4885254 2992.4006348 3327.5080566
          3060.2263184 3254.1237793 3228.6157227 3262.0720215 3288.8786621 3134.3254395
          3315.364502 3330.2050781 3335.5786133 3352.3566895 3219.9943848 3052.0288086
          3371.7990723 3327.5080566 3128.4306641 3390.8168945 3210.8168945 3318.4885254
          3407.8962402 3051.5981445 3121.4013672 3421.9143066 3307.8352051 3295.6394043
          3203.1867676 3305.7382813 3337.9257813 3371.3706055 3426.8552246 3397.8391113
          3295.3710938 3422.583252 3109.4050293 3421.9143066 3193.0012207 3451.9047852
          3479.9147949 3282.3947754 3407.8962402 3107.3972168 3504.0170898 3180.0683594
          3521.2875977 3390.8168945 3270.706543 3332.9360352 3345.201416 3382.7744141
          3423.8325195 3531.1535645 3459.222168 3163.6184082 3371.7990723 3495.0734863
          3255.6376953 3521.2875977 3535.9191895 3352.3566895 3575.2714844 3504.0170898
          3159.7978516 3236.0556641 3606.3574219 3479.9147949 3335.5786133 3626.3532715
          3365.4855957 3379.8598633 3422.6303711 3646.2109375 3471.7751465 3214.5847168
          3517.251709 3451.9047852 3315.364502 3564.2685547 3626.3532715 3617.7290039
          3422.583252 3208.7556152 3675.4523926 3606.3574219 3288.8786621 3719.3271484
          3397.8391113 3575.2714844 3748.7260742 3392.3918457 3408.2780762 3262.0720215
          3453.8874512 3783.9807129 3506.9284668 3535.9191895 3558.2971191 3371.3706055
          3613.9626465 3748.7260742 3683.3417969 3254.1237793 3495.0734863 3773.177002
          3337.9257813 3719.3271484 3851.8999023 3459.222168 3675.4523926 3911.8847656
          3305.7382813 3412.3725586 3428.1191406 3470.8955078 3963.260498 3617.7290039
          3521.2126465 3423.8325195 3573.9538574 3637.4265137 3911.8847656 3295.6394043
          3727.4880371 3564.2685547 3382.7744141 3862.9909668 3851.8999023 4014.4584961
          3517.251709 3773.177002 4147.9179688 3345.201416 3424.4025879 3440.1027832
          4229.0947266 3683.3417969 3478.9758301 3471.7751465 3527.8312988 3585.1955566
          4147.9179688 3332.9360352 3657.0861816 3613.9626465 3756.0739746 3422.6303711
          4014.4584961 3931.9306641 4211.0112305 3558.2971191 3862.9909668 3379.8598633
          4499.53125 3506.9284668 3430.1867676 3727.4880371 3445.8859863 4657.3012695
          3482.4926758 3532.0881348 3592.4094238 3365.4855957 4499.53125 3675.4946289
          3637.4265137 3453.8874512 3818.032959 4211.0112305 4041.7700195 3573.9538574
          4321.1308594 3931.9306641 3408.2780762 4687.0581055 3521.2126465 3756.0739746
          4984.3476563 3392.3918457 4687.0581055 3657.0861816 3470.8955078 4321.1308594
          3585.1955566 3428.1191406 4041.7700195 3527.8312988 3818.032959 3412.3725586
          3478.9758301 3675.4946289 3592.4094238 3440.1027832 3532.0881348 3424.4025879
          3482.4926758 3445.8859863 3430.1867676
        </DataArray>
        <DataArray type="Float32" Name="VELOCITY" NumberOfComponents="3" ComponentName0="X-VELOCITY" ComponentName1="Y-VELOCITY" ComponentName2="Z-VELOCITY" format="ascii" RangeMin="0" RangeMax="88.926742554">
          0 0 0 0 0 0
          43.290920258 0.10597732663 0 43.068626404 0.1191156134 0
          36.09135437 0.31851258874 0 0 0 0
          42.75976944 0.16404230893 0 35.927837372 0.38809868693 0
          35.575912476 0.58800280094 0 37.893157959 0.38323134184 0
          0 0 0 42.333583832 0.21492366493 0
          38.055282593 0.50574827194 0 38.167327881 0.81716793776 0
          35.039054871 0.80310487747 0 41.956912994 0.052225571126 0
          0 0 0 41.776252747 0.27918982506 0
          42.497371674 0.1373834461 0 38.252822876 1.1308022738 0
          34.331993103 1.0318183899 0 43.108650208 0.42048418522 0
          38.334342957 1.4318013191 0 47.807117462 -0.56355166435 0
          0 0 0 43.77130127 0.70855301619 0
          48.348285675 -0.50844806433 0 41.075653076 0.35147145391 0
          33.479675293 1.2566671371 0 48.9973526 -0.2917509079 0
          44.464206696 0.98029184341 0 38.433540344 1.6997551918 0
          49.683338165 -0.025748737156 0 0 0 0
          53.813266754 -1.008374095 0 53.871204376 -0.91022872925 0
          40.230651855 0.42492002249 0 53.970523834 -0.71942979097 0
          32.514835358 1.4611318111 0 50.350395203 0.25676339865 0
          45.167331696 1.2249658108 0 38.562637329 1.9207401276 0
          54.089183807 -0.4447633028 0 0 0 0
          58.702590942 -0.85820972919 0 50.966438293 0.54219430685 0
          39.250278473 0.49422809482 0 58.253253937 -0.70752829313 0
          54.214637756 -0.13333402574 0 45.852458954 1.4390374422 0
          31.473445892 1.6338809729 0 57.799495697 -0.53215485811 0
          38.723197937 2.0896067619 0 57.417613983 -0.30620232224 0
          54.352394104 0.1826647073 0 51.516819 0.82003825903 0
          65.298690796 -0.29974082112 0 0 0 0
          57.153617859 -0.065032139421 0 38.151744843 0.55494421721 0
          64.882736206 -0.20725348592 0 46.48972702 1.6226853132 0
          30.390472412 1.7676098347 0 64.493881226 -0.10387974232 0
          54.523448944 0.47728377581 0 64.20262146 -0.0014385418035 0
          38.907730103 2.2064201832 0 52.003173828 1.0787408352 0
          57.028564453 0.16013102233 0 64.037696838 0.096487030387 0
          47.055374146 1.7755432129 0 75.993515015 0.041194431484 0
          0 0 0 36.958427429 0.60345804691 0
          75.924911499 0.043451730162 0 57.047031403 0.34889146686 0
          29.297252655 1.8579404354 0 54.752914429 0.73139125109 0
          75.899551392 0.067384324968 0 63.996528625 0.18163724244 0
          52.439105988 1.3064194918 0 39.1030159 2.2731592655 0
          75.916687012 0.084403917193 0 47.535434723 1.895155549 0
          75.969566345 0.10173968971 0 57.198051453 0.49357360601 0
          82.515220642 4.0049072999e-013 0 64.056396484 0.25059279799 0
          0 0 0 55.058864594 0.93517142534 0
          35.698246002 0.6369125247 0 82.582344055 4.288501249e-013 0
          28.22063446 1.9023964405 0 82.685317993 4.4654866827e-013 0
          52.842338562 1.4935646057 0 76.05229187 0.12147266418 0
          39.293842316 2.2916953564 0 82.799911499 4.4301977993e-013 0
          64.186271667 0.3050198257 0 57.458374023 0.59737372398 0
          82.923522949 4.1993467623e-013 0 47.925209045 1.9775335789 0
          55.446277618 1.0880492926 0 76.158790588 0.14430147409 0
          0 0 0 75.993515015 -0.041194431484 0
          34.402301788 0.65314537287 0 75.924911499 -0.043451730162 0
          27.183113098 1.8998743296 0 53.227352142 1.6344487667 0
          75.899551392 -0.067384324968 0 83.061378479 3.7745390038e-013 0
          64.356971741 0.34888911247 0 75.916687012 -0.084403917193 0
          57.799167633 0.66915875673 0 39.465919495 2.2632403374 0
          76.284660339 0.16979818046 0 83.221191406 3.1473711441e-013 0
          55.907253265 1.1949955225 0 75.969566345 -0.10173968971 0
          48.226566315 2.0182704926 0 65.298690796 0.29974082112 0
          0 0 0 64.882736206 0.20725348592 0
          64.547439575 0.3853058517 0 33.103553772 0.65078634024 0
          76.428001404 0.19627854228 0 53.601577759 1.7262749672 0
          76.05229187 -0.12147266418 0 64.493881226 0.10387974232 0
          26.203292847 1.8506815434 0 58.193054199 0.71762359142 0
          83.409645081 2.3079888695e-013 0 64.20262146 0.0014385418035 0
          39.607894897 2.1887245178 0 56.425262451 1.2616809607 0
          76.158790588 -0.14430147409 0 64.037696838 -0.096487030387 0
          48.445327759 2.0133678913 0 76.588500977 0.22110171616 0
          64.745887756 0.41492182016 0 83.630050659 1.6197694499e-013 0
          58.702590942 0.85820972919 0 0 0 0
          63.996528625 -0.18163724244 0 53.965343475 1.7675918341 0
          58.617996216 0.74782270193 0 58.253253937 0.70752829313 0
          31.835325241 0.62950950861 0 76.284660339 -0.16979818046 0
          25.296388626 1.7569531202 0 57.799495697 0.53215485811 0
          57.417613983 0.30620232224 0 39.712619781 2.0696492195 0
          64.056396484 -0.25059279799 0 56.979793549 1.2916653156 0
          83.881195068 9.2869654566e-014 0 76.765655518 0.24147988856 0
          64.947212219 0.43636158109 0 48.589595795 1.9601135254 0
          76.428001404 -0.19627854228 0 57.153617859 0.065032139421 0
          59.0574646 0.76109927893 0 64.186271667 -0.3050198257 0
          54.313690186 1.7579162121 0 57.028564453 -0.16013102233 0
          53.813266754 1.008374095 0 0 0 0
          30.629451752 0.59034460783 0 53.871204376 0.91022872925 0
          84.157707214 2.5072498805e-014 0 53.970523834 0.71942979097 0
          24.474571228 1.6232010126 0 76.588500977 -0.22110171616 0
          76.957305908 0.25533503294 0 54.089183807 0.4447633028 0
          57.047031403 -0.34889146686 0 39.777770996 1.9092156887 0
          57.549407959 1.2866716385 0 64.356971741 -0.34888911247 0
          65.149169922 0.44772520661 0 54.214637756 0.13333402574 0
          48.668567657 1.858445406 0 59.498542786 0.75710737705 0
          57.198051453 -0.49357360601 0 76.765655518 -0.24147988856 0
          54.638462067 1.698857069 0 54.352394104 -0.1826647073 0
          84.451522827 -1.3872376114e-014 0 64.547439575 -0.3853058517 0
          47.807117462 0.56355166435 0 0 0 0
          77.159370422 0.26174297929 0 29.51415062 0.53590393066 0
          48.348285675 0.50844806433 0 23.747087479 1.4567440748 0
          48.9973526 0.2917509079 0 54.523448944 -0.47728377581 0
          58.113357544 1.2485300303 0 57.458374023 -0.59737372398 0
          65.349639893 0.44790050387 0 49.683338165 0.025748737156 0
          39.805580139 1.7134668827 0 50.350395203 -0.25676339865 0
          48.691505432 1.7124083042 0 76.957305908 -0.25533503294 0
          64.745887756 -0.41492182016 0 84.753616333 -2.3574959801e-014 0
          59.93013382 0.73586982489 0 54.752914429 -0.73139125109 0
          57.799167633 -0.66915875673 0 54.930233002 1.5954685211 0
          50.966438293 -0.54219430685 0 77.366371155 0.26085829735 0
          41.956912994 -0.052225571126 0 0 0 0
          42.497371674 -0.1373834461 0 28.511781693 0.47037601471 0
          43.108650208 -0.42048418522 0 55.058864594 -0.93517142534 0
          65.545562744 0.43703749776 0 23.120031357 1.2677428722 0
          58.652763367 1.1807687283 0 51.516819 -0.82003825903 0
          64.947212219 -0.43636158109 0 43.77130127 -0.70855301619 0
          39.801807404 1.4919201136 0 77.159370422 -0.26174297929 0
          58.193054199 -0.71762359142 0 85.055419922 5.6250983689e-015 0
          48.666999817 1.5307744741 0 44.464206696 -0.98029184341 0
          60.34236145 0.69872361422 0 52.003173828 -1.0787408352 0
          55.446277618 -1.0880492926 0 77.572410583 0.25353190303 0
          55.180294037 1.4565398693 0 45.167331696 -1.2249658108 0
          65.149169922 -0.44772520661 0 65.733200073 0.41632500291 0
          0 0 0 52.439105988 -1.3064194918 0
          37.893157959 -0.38323134184 0 77.366371155 -0.26085829735 0
          58.617996216 -0.74782270193 0 38.055282593 -0.50574827194 0
          27.636827469 0.39918783307 0 45.852458954 -1.4390374422 0
          59.151893616 1.088945508 0 38.167327881 -0.81716793776 0
          22.595947266 1.0686147213 0 55.907253265 -1.1949955225 0
          85.349617004 4.5593537219e-014 0 39.774333954 1.257224679 0
          38.252822876 -1.1308022738 0 46.48972702 -1.6226853132 0
          38.334342957 -1.4318013191 0 48.602806091 1.3262900114 0
          60.726799011 0.64826023579 0 52.842338562 -1.4935646057 0
          77.771942139 0.24090142548 0 59.0574646 -0.76109927893 0
          65.349639893 -0.44790050387 0 38.433540344 -1.6997551918 0
          55.382591248 1.293598175 0 56.425262451 -1.2616809607 0
          77.572410583 -0.25353190303 0 65.908805847 0.38753783703 0
          47.055374146 -1.7755432129 0 0 0 0
          36.09135437 -0.31851258874 0 38.562637329 -1.9207401276 0
          26.894483566 0.32834818959 0 59.599334717 0.98005092144 0
          53.227352142 -1.6344487667 0 35.927837372 -0.38809868693 0
          85.630363464 7.8095976951e-014 0 35.575912476 -0.58800280094 0
          22.17345047 0.87279582024 0 39.731887817 1.0237717628 0
          35.039054871 -0.80310487747 0 47.535434723 -1.895155549 0
          77.960266113 0.22411853075 0 59.498542786 -0.75710737705 0
          61.077022552 0.58788788319 0 38.723197937 -2.0896067619 0
          65.545562744 -0.43703749776 0 34.331993103 -1.0318183899 0
          56.979793549 -1.2916653156 0 48.506271362 1.1137937307 0
          77.771942139 -0.24090142548 0 53.601577759 -1.7262749672 0
          55.535140991 1.1192425489 0 33.479675293 -1.2566671371 0
          66.069229126 0.35269060731 0 38.907730103 -2.2064201832 0
          47.925209045 -1.9775335789 0 85.893173218 8.9935207176e-014 0
          32.514835358 -1.4611318111 0 59.988544464 0.86166495085 0
          43.290920258 -0.10597732663 0 0 0 0
          43.068626404 -0.1191156134 0 26.280218124 0.2636115849 0
          59.93013382 -0.73586982489 0 21.847234726 0.69307285547 0
          42.75976944 -0.16404230893 0 57.549407959 -1.2866716385 0
          53.965343475 -1.7675918341 0 65.733200073 -0.41632500291 0
          39.1030159 -2.2731592655 0 42.333583832 -0.21492366493 0
          39.683074951 0.80564898252 0 78.133666992 0.20425209403 0
          31.473445892 -1.6338809729 0 61.38898468 0.5214317441 0
          77.960266113 -0.22411853075 0 41.776252747 -0.27918982506 0
          48.226566315 -2.0182704926 0 48.384914398 0.90791463852 0
          55.640491486 0.94550335407 0 41.075653076 -0.35147145391 0
          66.212356567 0.31389200687 0 30.390472412 -1.7676098347 0
          39.293842316 -2.2916953564 0 86.13469696 7.7100442187e-014 0
          58.113357544 -1.2485300303 0 60.34236145 -0.69872361422 0
          54.313690186 -1.7579162121 0 60.317737579 0.74122476578 0
          40.230651855 -0.42492002249 0 65.908805847 -0.38753783703 0
          0 0 0 48.445327759 -2.0133678913 0
          0 0 0 0 0 0
          25.780496597 0.20968233049 0 0 0 0
          21.608602524 0.5398850441 0 29.297252655 -1.8579404354 0
          78.289497375 0.18235263228 0 0 0 0
          39.635726929 0.61454564333 0 39.250278473 -0.49422809482 0
          78.133666992 -0.20425209403 0 61.661102295 0.45284855366 0
          39.465919495 -2.2632403374 0 0 0 0
          48.24671936 0.72102576494 0 58.652763367 -1.1807687283 0
          54.638462067 -1.698857069 0 28.22063446 -1.9023964405 0
          86.352645874 3.3865732484e-014 0 38.151744843 -0.55494421721 0
          55.705165863 0.78257769346 0 66.337203979 0.27336508036 0
          48.589595795 -1.9601135254 0 60.726799011 -0.64826023579 0
          0 0 0 66.069229126 -0.35269060731 0
          39.607894897 -2.1887245178 0 0 0 0
          60.589160919 0.62542957067 0 0 0 0
          25.374601364 0.1696639061 0 36.958427429 -0.60345804691 0
          78.426139832 0.15961237252 0 21.446586609 0.42001324892 0
          27.183113098 -1.8998743296 0 78.289497375 -0.18235263228 0
          61.894088745 0.38599705696 0 0 0 0
          54.930233002 -1.5954685211 0 39.596401215 0.45816883445 0
          59.151893616 -1.088945508 0 48.668567657 -1.858445406 0
          48.099967957 0.56185728312 0 61.077022552 -0.58788788319 0
          39.712619781 -2.0696492195 0 86.545898438 -3.9448506311e-014 0
          35.698246002 -0.6369125247 0 0 0 0
          66.443824768 0.23351280391 0 55.738357544 0.63801378012 0
          26.203292847 -1.8506815434 0 66.212356567 -0.31389200687 0
          60.808002472 0.5197545886 0 78.54309845 0.13744153082 0
          0 0 0 55.180294037 -1.4565398693 0
          48.691505432 -1.7124083042 0 78.426139832 -0.15961237252 0
          34.402301788 -0.65314537287 0 0 0 0
          25.037256241 0.14486508071 0 39.777770996 -1.9092156887 0
          59.599334717 -0.98005092144 0 21.349514008 0.33595827222 0
          62.090427399 0.324403584 0 61.38898468 -0.5214317441 0
          39.569923401 0.33952459693 0 25.296388626 -1.7569531202 0
          47.952674866 0.43492424488 0 86.714767456 -1.1775788135e-013 0
          0 0 0 33.103553772 -0.65078634024 0
          66.533119202 0.1967869699 0 66.337203979 -0.27336508036 0
          55.750343323 0.51635158062 0 48.666999817 -1.5307744741 0
          39.805580139 -1.7134668827 0 55.382591248 -1.293598175 0
          60.981193542 0.42811691761 0 59.988544464 -0.86166495085 0
          24.474571228 -1.6232010126 0 78.54309845 -0.13744153082 0
          0 0 0 78.641181946 0.11722292006 0
          0 0 0 31.835325241 -0.62950950861 0
          61.661102295 -0.45284855366 0 24.741603851 0.13495361805 0
          21.306671143 0.28611689806 0 62.253803253 0.27093428373 0
          39.558952332 0.25716495514 0 86.861053467 -1.7894659279e-013 0
          0 0 0 66.443824768 -0.23351280391 0
          47.811897278 0.34074479342 0 48.602806091 -1.3262900114 0
          39.801807404 -1.4919201136 0 66.606864929 0.16513806581 0
          23.747087479 -1.4567440748 0 55.535140991 -1.1192425489 0
          55.750953674 0.41922876239 0 60.317737579 -0.74122476578 0