<?xml version="1.0"?>
<VTKFile type="PolyData" version="0.1" byte_order="LittleEndian" compressor="vtkZLibDataCompressor">
  <PolyData>
    <Piece NumberOfPoints="1071" NumberOfVerts="0" NumberOfLines="0" NumberOfStrips="0" NumberOfPolys="2000">
      <PointData>
        <DataArray type="Float32" Name="PRESSURE" format="ascii" RangeMin="-20581.908203" RangeMax="0">
          0 -406.38696289 0 -407.57720947 0 -815.16247559
          -815.54705811 -406.84277344 -815.67169189 0 -1224.791748 -1224.9484863
          -407.46166992 -816.55371094 -1225.4171143 0 -1634.9445801 -1635.0812988
          -408.3059082 -1226.3476563 -1635.6185303 -817.54168701 -1636.4805908 0
          -2045.4084473 -1227.2880859 -408.91308594 -2045.5487061 -2046.0551758 -818.29528809
          -1637.3183594 -2046.8067627 -1228.0241699 -2456.0466309 0 -409.28555298
          -2456.1801758 -818.80621338 -2456.6240234 -1637.9863281 -2047.5284424 -2457.2580566
          -1228.5535889 -2866.7824707 0 -2048.1132813 -2866.901123 -409.50622559
          -1638.4844971 -2457.8649902 -2867.2749023 -819.13775635 -2867.7963867 -1228.9190674
          -2048.5600586 -2458.3635254 0 -3277.5749512 -1638.8421631 -3277.675293
          -409.63287354 -2868.295166 -3277.9797363 -819.34118652 -2458.7512207 -1229.1547852
          -3278.3977051 -2868.7092285 -2048.8894043 -1639.0809326 -3278.7963867 0
          -3688.4013672 -3688.482666 -409.70458984 -2459.041748 -3688.7219238 -2869.0349121
          -819.45727539 -2049.1137695 -3279.1291504 -3689.0446777 -1229.2910156 -3689.3508301
          -1639.2199707 -2869.2819824 0 -2459.2426758 -4099.2490234 -3279.3930664
          -4099.3120117 -409.73178101 -4099.4902344 -819.49853516 -3689.6064453 -2049.2451172
          -4099.7250977 -1229.3376465 -2869.4545898 -3279.5947266 -1639.2663574 -4099.9448242
          -3689.8095703 -2459.3601074 -4510.1118164 0 -4510.1567383 -409.70458984
          -4510.2773438 -4100.1269531 -819.45727539 -2049.2880859 -3279.7363281 -1229.2910156
          -3689.9650879 -4510.4291992 -2869.5554199 -2459.3979492 -4100.2700195 -1639.2199707
          -4510.5668945 0 -4920.9848633 -409.63287354 -3690.0749512 -4921.012207
          -3279.8188477 -4510.6772461 -2049.2451172 -819.34118652 -4921.0771484 -4100.3793945
          -2869.5874023 -1229.1547852 -4921.1494141 -4510.7617188 -2459.3601074 -1639.0809326
          -4921.2075195 -3690.1384277 -4100.456543 -3279.8447266 0 -5331.8662109
          -2049.1137695 -4921.2470703 -4510.824707 -409.50622559 -5331.8769531 -2869.5554199
          -5331.8867188 -819.13775635 -1228.9190674 -5331.8798828 -2459.2426758 -4921.2719727
          -3690.157959 -4100.5009766 -4510.8681641 -5331.8579102 -3279.8188477 -1638.8421631
          -4921.2871094 -2869.4545898 -5331.8256836 -2048.8894043 0 -5742.7558594
          -5742.7490234 -409.28555298 -4100.5136719 -818.80621338 -5742.7036133 -3690.1384277
          -4510.8920898 -1228.5535889 -2459.041748 -5742.6152344 -5331.7890625 -3279.7363281
          -4921.2963867 -1638.4844971 -5742.5102539 -5331.7548828 -2869.2819824 -4100.5009766
          -5742.402832 -2048.5600586 -4510.8984375 -3690.0749512 0 -6153.652832
          -4921.2993164 -6153.6289063 -408.91308594 -6153.5249023 -818.29528809 -2458.7512207
          -5742.3012695 -3279.5947266 -5331.7280273 -1228.0241699 -6153.3505859 -1637.9863281
          -6153.1572266 -4510.8920898 -4100.456543 -4921.2988281 -5742.2148438 -2869.0349121
          -3689.9650879 -6152.96875 -2048.1132813 -5331.7089844 0 -6564.5581055
          -408.3059082 -6564.515625 -817.54168701 -3279.3930664 -5742.1489258 -6564.3491211
          -6152.7963867 -2458.3635254 -4510.8681641 -1227.2880859 -6564.0810547 -4921.2993164
          -4100.3793945 -5331.7006836 -6563.7900391 -1637.3183594 -6152.652832 -2868.7092285
          -3689.8095703 -5742.1064453 -6563.5117188 -2047.5284424 -4921.2963867 -6152.5454102
          -6975.4716797 -3279.1291504 0 -5331.7089844 -4510.824707 -407.46166992
          -6975.409668 -2457.8649902 -6563.2612305 -816.55371094 -6975.1743164 -4100.2700195
          -5742.090332 -6974.8012695 -1226.3476563 -2868.295166 -1636.4805908 -6974.4003906
          -6563.0537109 -3689.6064453 -6152.4775391 -4921.2871094 -5331.7280273 -2046.8067627
          -6974.0205078 -4510.7617188 -5742.1064453 -6562.8999023 -3278.7963867 -7386.394043
          0 -2457.2580566 -7386.3110352 -6973.6811523 -4100.1269531 -406.84277344
          -6152.4516602 -815.67169189 -7385.9985352 -7385.5053711 -1225.4171143 -3689.3508301
          -6562.8032227 -5331.7548828 -6973.4003906 -2867.7963867 -5742.1489258 -1635.6185303
          -4921.2719727 -7384.9775391 -6152.4775391 -4510.6772461 -7384.480957 -2046.0551758
          -6973.1928711 -3278.3977051 -4099.9448242 -6562.7666016 -2456.6240234 -7384.0385742
          0 -7797.3251953 -407.57720947 -7797.2177734 -5742.2148438 -7796.8183594
          -815.54705811 -5331.7890625 -4921.2470703 -6152.5454102 -3689.0446777 -1224.9484863
          -7796.1860352 -6973.0620117 -2867.2749023 -7383.6733398 -6562.8032227 -1635.0812988
          -4510.5668945 -7795.5107422 -7794.8769531 -2045.5487061 -7383.402832 -3277.9797363
          -4099.7250977 -6973.0136719 -5742.3012695 -6152.652832 -5331.8256836 -7794.3144531
          -2456.1801758 -6562.8999023 -8208.2626953 -4921.2075195 0 -406.38696289
          -8208.1298828 -815.16247559 -8207.6298828 -3688.7219238 -7383.2314453 -1224.791748
          -8206.8339844 -2866.901123 -6973.0620117 -7793.8505859 -4510.4291992 -1634.9445801
          -8205.984375 -6152.7963867 -5742.402832 -4099.4902344 -7383.1704102 -3277.675293
          -8205.1894531 -7793.5058594 -5331.8579102 -6563.0537109 -2045.4084473 -6973.1928711
          -4921.1494141 -2456.0466309 -8204.4863281 -8619.2041016 -8619.0419922 -3688.482666
          -7793.2890625 -8618.4267578 -4510.2773438 -7383.2314453 -8203.9072266 -2866.7824707
          -6152.96875 -8617.4384766 -6563.2612305 -5742.5102539 -8616.3828125 -6973.4003906
          -5331.8798828 -7793.2119141 -4099.3120117 -3277.5749512 -8203.4775391 -8615.3974609
          -4921.0771484 -7383.402832 -8614.5273438 -8203.2089844 -3688.4013672 -6563.5117188
          -6153.1572266 -7793.2890625 -4510.1567383 -9030.1435547 -9029.9492188 -5742.6152344
          -6973.6811523 -9029.2001953 -8613.8125 -7383.6733398 -9027.9853516 -5331.8867188
          -9026.6835938 -8203.1123047 -4099.2490234 -4921.012207 -8613.2851563 -7793.5058594
          -9025.4726563 -6563.7900391 -6153.3505859 -6974.0205078 -9024.4052734 -7384.0385742
          -5742.7036133 -8203.2089844 -4510.1118164 -8612.9580078 -9441.0722656 -5331.8769531
          -7793.8505859 -9440.8417969 -9439.9394531 -9023.5302734 -9438.4550781 -8612.8359375
          -4920.9848633 -8203.4775391 -9436.8613281 -6974.4003906 -6564.0810547 -9022.8886719
          -6153.5249023 -7384.480957 -9435.3808594 -7794.3144531 -5742.7490234 -8612.9580078
          -9434.0791016 -9022.4863281 -5331.8662109 -8203.9072266 -9851.9746094 -9851.7060547
          -9433.0146484 -6974.8012695 -9850.6279297 -7384.9775391 -6564.3491211 -9022.3359375
          -9848.8251953 -8613.2851563 -7794.8769531 -6153.6289063 -9846.8837891 -9432.2314453
          -8204.4863281 -5742.7558594 -9845.0839844 -9022.4863281 -8613.8125 -9431.7363281
          -9843.5039063 -6975.1743164 -7385.5053711 -7795.5107422 -6564.515625 -9842.2109375
          -10262.831055 -6153.652832 -8205.1894531 -10262.521484 -9022.8886719 -9431.5546875
          -10261.241211 -10259.063477 -8614.5273438 -9841.2548828 -10256.709961 -7385.9985352
          -9431.7363281 -10254.530273 -7796.1860352 -6975.409668 -9023.5302734 -8205.984375
          -6564.5581055 -9840.6484375 -10252.621094 -8615.3974609 -9432.2314453 -10251.05957
          -10673.610352 -9840.4316406 -10673.257813 -9024.4052734 -10671.75 -10669.131836
          -7796.8183594 -7386.3110352 -10249.900391 -8206.8339844 -6975.4716797 -10666.289063
          -8616.3828125 -9840.6484375 -9433.0146484 -10663.662109 -10249.172852 -9025.4726563
          -10661.366211 -9841.2548828 -7797.2177734 -8207.6298828 -7386.394043 -10659.493164
          -10248.912109 -9434.0791016 -11084.268555 -8617.4384766 -11083.874023 -11082.111328
          -11078.977539 -10658.109375 -9026.6835938 -11075.557617 -9842.2109375 -10249.172852
          -11072.404297 -9435.3808594 -10657.251953 -8208.1298828 -7797.3251953 -8618.4267578
          -11069.65918 -10249.900391 -9843.5039063 -9027.9853516 -10656.930664 -11067.428711
          -11494.744141 -11494.30957 -9436.8613281 -11492.266602 -11065.800781 -11488.535156
          -10251.05957 -10657.251953 -11484.4375 -8208.2626953 -9845.0839844 -8619.0419922
          -9029.2001953 -11480.668945 -11064.789063 -9438.4550781 -10658.109375 -11477.402344
          -10252.621094 -11064.391602 -9846.8837891 -11474.760742 -8619.2041016 -11904.950195
          -11904.484375 -10659.493164 -11902.139648 -9029.9492188 -11472.84668 -10254.530273
          -11064.789063 -11897.717773 -9439.9394531 -11892.832031 -9848.8251953 -11471.631836
          -11888.351563 -10661.366211 -11065.800781 -11884.481445 -10256.709961 -11471.155273
          -9030.1435547 -9440.8417969 -11881.357422 -11067.428711 -12314.770508 -9850.6279297
          -10663.662109 -12314.287109 -12311.625 -11471.631836 -11879.081055 -12306.416992
          -10259.063477 -12300.623047 -11877.606445 -11069.65918 -12295.324219 -11472.84668
          -9441.0722656 -10666.289063 -12290.758789 -9851.7060547 -11877.05957 -12287.068359
          -10261.241211 -11474.760742 -11072.404297 -12724.041992 -11877.606445 -12723.56543
          -12284.34668 -12720.585938 -10669.131836 -12714.492188 -9851.9746094 -12707.660156
          -11477.402344 -12282.59375 -11075.557617 -11879.081055 -12701.426758 -10262.521484
          -12696.069336 -12281.97168 -10671.75 -11480.668945 -12691.740234 -11881.357422
          -11078.977539 -12282.59375 -13132.547852 -12688.540039 -13132.114258 -10262.831055
          -13128.833984 -13121.757813 -11884.481445 -10673.257813 -13113.749023 -11484.4375
          -12686.542969 -12284.34668 -13106.455078 -11082.111328 -13100.222656 -12685.802734
          -11888.351563 -12287.068359 -13095.219727 -11488.535156 -10673.610352 -12686.542969
          -13091.589844 -13539.993164 -11083.874023 -13539.65625 -13536.12207 -12290.758789
          -11892.832031 -13527.97168 -12688.540039 -13089.368164 -13518.640625 -11492.266602
          -13510.171875 -13088.43457 -12295.324219 -13503.003906 -11084.268555 -12691.740234
          -11897.717773 -13497.331055 -11494.30957 -13089.368164 -13493.318359 -12300.623047
          -13945.980469 -13945.818359 -12696.069336 -13942.121094 -11902.139648 -13932.825195
          -13091.589844 -13490.782227 -13922.046875 -13912.326172 -11494.744141 -12701.426758
          -13489.625 -12306.416992 -13904.188477 -13095.219727 -11904.484375 -13897.822266
          -13490.782227 -12707.660156 -13100.222656 -13893.345703 -12311.625 -14349.982422
          -14350.108398 -14346.400391 -13493.318359 -14335.933594 -13890.325195 -14323.638672
          -11904.950195 -13106.455078 -12714.492188 -14312.642578 -13889.023438 -13497.331055
          -12314.287109 -14303.506836 -14296.357422 -13890.325195 -13113.749023 -12720.585938
          -13503.003906 -14291.210938 -14751.294922 -14751.865234 -14748.387695 -12314.770508
          -13893.345703 -14736.801758 -14287.667969 -14722.994141 -13121.757813 -13510.171875
          -14710.737305 -12723.56543 -13897.822266 -14286.362305 -14700.583008 -14692.586914
          -13518.640625 -14287.667969 -13128.833984 -13904.188477 -14686.71875 -12724.041992
          -15148.984375 -14291.210938 -15150.212891 -15147.31543 -14682.923828 -15134.753906
          -13527.97168 -13912.326172 -15119.492188 -13132.114258 -15106.017578 -14296.357422
          -14681.626953 -15094.942383 -13922.046875 -13536.12207 -14682.923828 -15086.31543
          -14303.506836 -13132.547852 -15080.130859 -14686.71875 -15541.810547 -13932.825195
          -15543.979492 -15542.147461 -15076.460938 -14312.642578 -13539.65625 -15528.859375
          -15512.275391 -14692.586914 -15074.935547 -15497.766602 -15486.182617 -13942.121094
          -14323.638672 -13539.993164 -15076.460938 -14700.583008 -15477.561523 -15471.783203
          -15080.130859 -14335.933594 -13945.818359 -14710.737305 -15928.145508 -15931.623047
          -15468.209961 -15931.518555 -15917.921875 -15900.398438 -15086.31543 -15466.135742
          -15885.448242 -14346.400391 -14722.994141 -13945.980469 -15874.165039 -15468.209961
          -15094.942383 -15866.321289 -15861.366211 -14736.801758 -14350.108398 -15471.783203
          -15106.017578 -16305.861328 -16311.12793 -15857.342773 -16313.655273 -16300.512695
          -15477.561523 -16282.983398 -14748.387695 -15854.694336 -14349.982422 -16268.805664
          -15119.492188 -16258.788086 -15486.182617 -15857.342773 -16252.180664 -14751.865234
          -15134.753906 -16247.898438 -15861.366211 -15497.766602 -16243.262695 -16672.181641
          -16679.855469 -16686.222656 -16674.816406 -15866.321289 -15147.31543 -14751.294922
          -16658.921875 -15512.275391 -16240.417969 -16647.177734 -16639.353516 -15874.165039
          -16243.262695 -16634.398438 -15150.212891 -15528.859375 -16247.898438 -16631.066406
          -15885.448242 -16627.216797 -17023.498047 -17034.316406 -15542.147461 -17046.001953
          -16252.180664 -15148.984375 -17038.095703 -15900.398438 -17025.947266 -16624.533203
          -17018.505859 -16258.788086 -17014.521484 -16627.216797 -15543.979492 -15917.921875
          -17012.976563 -16268.805664 -16631.066406 -17012.757813 -15541.810547 -17012.3125
          -15931.518555 -17355.144531 -16634.398438 -17369.890625 -17388.449219 -16282.983398
          -17386.048828 -17009.679688 -17380.134766 -17379.984375 -16639.353516 -15931.623047
          -17384.054688 -17012.3125 -16300.512695 -17389.986328 -16647.177734 -17012.757813
          -17396.503906 -15928.145508 -16313.655273 -17400.921875 -17012.976563 -17661.208984
          -16658.921875 -17680.59375 -17707.404297 -17712.900391 -17398.181641 -17717.337891
          -17014.521484 -17730.884766 -16311.12793 -17400.921875 -16674.816406 -17750.53125
          -17769.048828 -17018.505859 -17396.503906 -16305.861328 -17784.455078 -16686.222656
          -17791.740234 -17389.986328 -17025.947266 -17934.417969 -17958.927734 -17995.068359
          -18012.246094 -17790.03125 -18034.863281 -16679.855469 -17384.054688 -18072.773438
          -17038.095703 -17791.740234 -18117.476563 -17379.984375 -18153.900391 -17784.455078
          -16672.181641 -17046.001953 -18176.820313 -17769.048828 -17380.134766 -18183.113281
          -18166.140625 -18195.683594 -18241.515625 -18184.828125 -18275.876953 -17034.316406
          -18327.248047 -17750.53125 -17386.048828 -18402.546875 -18183.113281 -18485.380859
          -17730.884766 -17023.498047 -18549.447266 -18176.820313 -17388.449219 -18578.068359
          -17717.337891 -18153.900391 -18582.619141 -18346.542969 -18379.302734 -17369.890625
          -18432.330078 -18586.111328 -18487.591797 -18117.476563 -18576.457031 -17712.900391
          -18705.275391 -18582.619141 -18851.443359 -17355.144531 -18072.773438 -18966.507813
          -17707.404297 -18578.068359 -19004.927734 -18034.863281 -18549.447266 -19011.271484
          -17680.59375 -18465.375 -18495.115234 -18546.212891 -19012.822266 -18485.380859
          -18619.091797 -18012.246094 -18751.259766 -18958.138672 -19011.271484 -17661.208984
          -19216.935547 -18402.546875 -17995.068359 -19428.386719 -19004.927734 -19478.091797
          -18327.248047 -18966.507813 -19472.394531 -17958.927734 -18516.587891 -18528.634766
          -19461.367188 -18851.443359 -18561.996094 -18275.876953 -18643.078125 -18815.763672
          -19472.394531 -17934.417969 -19121.974609 -18705.275391 -19567.238281 -18241.515625
          -19478.091797 -19969.792969 -20068.773438 -18576.457031 -19428.386719 -18195.683594
          -20038.046875 -18487.591797 -18507.460938 -19216.935547 -18513.927734 -20048.689453
          -18540.089844 -18626.414063 -18845.962891 -18166.140625 -20038.046875 -19375.292969
          -18958.138672 -18432.330078 -20247.119141 -20068.773438 -20581.908203 -18751.259766
          -20560.033203 -19969.792969 -18379.302734 -20536.371094 -18619.091797 -19567.238281
          -20520.492188 -18346.542969 -20536.371094 -19121.974609 -18546.212891 -20560.033203
          -18815.763672 -18495.115234 -20581.908203 -18643.078125 -20247.119141 -18465.375
          -18561.996094 -19375.292969 -18845.962891 -18528.634766 -18626.414063 -18516.587891
          -18540.089844 -18513.927734 -18507.460938
        </DataArray>
        <DataArray type="Float32" Name="VELOCITY" NumberOfComponents="3" ComponentName0="X-VELOCITY" ComponentName1="Y-VELOCITY" ComponentName2="Z-VELOCITY" format="ascii" RangeMin="0" RangeMax="82.942466736">
          0 0 0 0 0 0
          7.8963646889 -0.01341628097 0 8.3963375092 0.020215842873 0
          21.859746933 0.0092416014522 0 0 0 0
          8.47219944 0.021112980321 0 21.90130806 0.027965264395 0
          21.924131393 0.024927692488 0 33.064357758 0.005579339806 0
          0 0 0 8.4819974899 0.015876730904 0
          33.079582214 0.015644226223 0 33.090496063 0.01649695076 0
          21.932535172 0.0183423087 0 42.849308014 0.00092114508152 0
          0 0 0 8.4813280106 0.011283775792 0
          42.853618622 0.0068785743788 0 33.096294403 0.01369654946 0
          21.935630798 0.01319023408 0 42.859264374 0.0093041034415 0
          33.099159241 0.010643426329 0 51.064796448 -0.00098405731842 0
          0 0 0 42.863712311 0.0090466784313 0
          51.065948486 0.0025729483459 0 8.4791221619 0.0080464193597 0
          21.936952591 0.0096197118983 0 51.068634033 0.0049059437588 0
          42.866687775 0.0078220544383 0 33.100585938 0.0081539163366 0
          51.071434021 0.0056488849223 0 0 0 0
          57.00390625 -0.0013561224332 0 57.004001617 0.00084229494678 0
          8.4769268036 0.0058351405896 0 57.005130768 0.0026278614532 0
          21.937610626 0.0071362336166 0 51.07371521 0.0054543893784 0
          42.868583679 0.0064397831447 0 33.101303101 0.0062438985333 0
          57.006690979 0.0035300038289 0 0 0 0
          58.594806671 -0.0010838231537 0 51.075393677 0.0048430976458 0
          8.4750299454 0.0043011629023 0 58.594516754 0.00029749411624 0
          57.008213043 0.0037447398063 0 42.869785309 0.0051784291863 0
          21.937976837 0.0053552370518 0 58.594924927 0.0015235327883 0
          33.101661682 0.0047838892788 0 58.595767975 0.0022589671426 0
          57.009506226 0.0035458775237 0 51.076587677 0.00410401728 0
          62.297687531 -0.00059295236133 0 0 0 0
          58.596763611 0.0025468841195 0 8.4734716415 0.0032020839863 0
          62.297428131 0.0001599551324 0 42.870555878 0.0041032293811 0
          21.93819809 0.0040334607475 0 62.297729492 0.00089331425261 0
          57.010540009 0.0031414732803 0 62.298408508 0.0013749131467 0
          33.101833344 0.0036525907926 0 51.07742691 0.0033719334751 0
          58.597732544 0.0025155784097 0 62.29927063 0.0015968051739 0
          42.871063232 0.0032060632948 0 74.309555054 -0.0002374160249 0
          0 0 0 8.4722290039 0.0023828658741 0
          74.309379578 6.7589433456e-005 0 58.59859848 0.0022933802102 0
          21.938346863 0.0030178951565 0 57.01134491 0.002660195576 0
          74.309623718 0.00039908429608 0 62.300170898 0.0016116856132 0
          51.078025818 0.002699760953 0 33.101909637 0.0027573984116 0
          74.310188293 0.00063183443854 0 42.87140274 0.0024573570117 0
          74.310935974 0.0007467654068 0 58.599327087 0.0019808462821 0
          82.937240601 -1.5311772575e-013 0 62.301013947 0.0014933067141 0
          0 0 0 57.011966705 0.0021737874486 0
          8.4712696075 0.0017451531021 0 82.937179565 -1.6834012754e-013 0
          21.938463211 0.0022082664073 0 82.937431335 -1.8723920797e-013 0
          51.078449249 0.002101281425 0 74.311737061 0.00076298794011 0
          33.10194397 0.0020292066038 0 82.937942505 -2.0859551066e-013 0
          62.301750183 0.0013117127819 0 58.599918365 0.001646472374 0
          82.938606262 -2.2641879148e-013 0 42.871639252 0.0018236921169 0
          57.012435913 0.001717385021 0 74.312515259 0.00071684003342 0
          0 0 0 74.309555054 0.0002374160249 0
          8.4705638885 0.0012246512342 0 74.309379578 -6.7589433456e-005 0
          21.938570023 0.0015349871246 0 51.07875061 0.0015715914778 0
          74.309623718 -0.00039908429608 0 82.939323425 -2.3248029478e-013 0
          62.30235672 0.00111472758 0 74.310188293 -0.00063183443854 0
          58.6003685 0.0013247462921 0 33.101966858 0.001415022416 0
          74.313209534 0.00064311106689 0 82.94002533 -2.0898918447e-013 0
          57.012775421 0.0012995047728 0 74.310935974 -0.0007467654068 0
          42.871807098 0.0012727518333 0 62.297687531 0.00059295236133 0
          0 0 0 62.297428131 -0.0001599551324 0
          62.302841187 0.0009159402689 0 8.4700889587 0.00077674404019 0
          74.313812256 0.00055932690157 0 51.078960419 0.0010951143922 0
          74.311737061 -0.00076298794011 0 62.297729492 -0.00089331425261 0
          21.938686371 0.00094626483042 0 58.600708008 0.0010165827116 0
          82.940666199 -1.7952294111e-013 0 62.298408508 -0.0013749131467 0
          33.101993561 0.00087215076201 0 57.013011932 0.00090819160687 0
          74.312515259 -0.00071684003342 0 62.29927063 -0.0015968051739 0
          42.871929169 0.00077383115422 0 74.314323425 0.0004616054357 0
          62.303222656 0.00070118741132 0 82.941238403 -1.5357956877e-013 0
          58.594806671 0.0010838231537 0 0 0 0
          62.300170898 -0.0016116856132 0 51.079101563 0.00064938637661 0
          58.600959778 0.00070311647141 0 58.594516754 -0.00029749411624 0
          8.4698314667 0.00036773941247 0 74.313209534 -0.00064311106689 0
          21.938827515 0.00040025942144 0 58.594924927 -0.0015235327883 0
          58.595767975 -0.0022589671426 0 33.102031708 0.00036396400537 0
          62.301013947 -0.0014933067141 0 57.013179779 0.00052215065807 0
          82.941726685 -1.216976281e-013 0 74.314735413 0.00033976777922 0
          62.303520203 0.00045875125215 0 42.872024536 0.00029727155925 0
          74.313812256 -0.00055932690157 0 58.596763611 -0.0025468841195 0
          58.601150513 0.00037368954509 0 62.301750183 -0.0013117127819 0
          51.079193115 0.00020951674378 0 58.597732544 -0.0025155784097 0
          57.00390625 0.0013561224332 0 0 0 0
          8.4697885513 -3.0506942494e-005 0 57.004001617 -0.00084229494678 0
          82.942085266 -9.9221195496e-014 0 57.005130768 -0.0026278614532 0
          21.939002991 -0.0001400239853 0 74.314323425 -0.0004616054357 0
          74.31502533 0.00020297818992 0 57.006690979 -0.0035300038289 0
          58.59859848 -0.0022933802102 0 33.102096558 -0.00014331331477 0
          57.01329422 0.0001264114253 0 62.30235672 -0.00111472758 0
          62.303726196 0.00021152477711 0 57.008213043 -0.0037447398063 0
          42.87210083 -0.00018614678993 0 58.601268768 4.6247791033e-005 0
          58.599327087 -0.0019808462821 0 74.314735413 -0.00033976777922 0
          51.079250336 -0.00024717286578 0 57.009506226 -0.0035458775237 0
          82.942306519 -8.018294416e-014 0 62.302841187 -0.0009159402689 0
          51.064796448 0.00098405731842 0 0 0 0
          74.315177917 8.7940381491e-005 0 8.4699668884 -0.00044410224655 0
          51.065948486 -0.0025729483459 0 21.939226151 -0.00071044574725 0
          51.068634033 -0.0049059437588 0 57.010540009 -0.0031414732803 0
          57.013343811 -0.00028023665072 0 58.599918365 -0.001646472374 0
          62.303798676 1.0773162103e-005 0 51.071434021 -0.0056488849223 0
          33.102191925 -0.00068341154838 0 51.07371521 -0.0054543893784 0
          42.872169495 -0.00070635013981 0 74.31502533 -0.00020297818992 0
          62.303222656 -0.00070118741132 0 82.942405701 -7.0551251202e-014 0
          58.601264954 -0.00024897363619 0 57.01134491 -0.002660195576 0
          58.6003685 -0.0013247462921 0 51.079269409 -0.0007408715901 0
          51.075393677 -0.0048430976458 0 74.315208435 2.7012434657e-005 0
          42.849308014 -0.00092114508152 0 0 0 0
          42.853618622 -0.0068785743788 0 8.4703817368 -0.00089965999359 0
          42.859264374 -0.0093041034415 0 57.011966705 -0.0021737874486 0
          62.303718567 -0.00012361207337 0 21.93951416 -0.0013487880351 0
          57.013301849 -0.00069861958036 0 51.076587677 -0.00410401728 0
          62.303520203 -0.00045875125215 0 42.863712311 -0.0090466784313 0
          33.102325439 -0.0012927944772 0 74.315177917 -8.7940381491e-005 0
          58.600708008 -0.0010165827116 0 82.942443848 -5.0110042255e-014 0
          42.872234344 -0.0012962877518 0 42.866687775 -0.0078220544383 0
          58.601100922 -0.00052150228294 0 51.07742691 -0.0033719334751 0
          57.012435913 -0.001717385021 0 74.315155029 -4.9747382036e-006 0
          51.079235077 -0.0012958573643 0 42.868583679 -0.0064397831447 0
          62.303726196 -0.00021152477711 0 62.303516388 -0.00026614347007 0
          0 0 0 51.078025818 -0.002699760953 0
          33.064357758 -0.005579339806 0 74.315208435 -2.7012434657e-005 0
          58.600959778 -0.00070311647141 0 33.079582214 -0.015644226223 0
          8.4710626602 -0.0014263618505 0 42.869785309 -0.0051784291863 0
          57.013130188 -0.0011566700414 0 33.090496063 -0.01649695076 0
          21.939880371 -0.0020974872168 0 57.012775421 -0.0012995047728 0
          82.942466736 -2.1687006371e-014 0 33.102508545 -0.0020133119542 0
          33.096294403 -0.01369654946 0 42.870555878 -0.0041032293811 0
          33.099159241 -0.010643426329 0 42.87228775 -0.0019947104156 0
          58.600803375 -0.00085746170953 0 51.078449249 -0.002101281425 0
          74.315063477 -0.00010190850298 0 58.601150513 -0.00037368954509 0
          62.303798676 -1.0773162103e-005 0 33.100585938 -0.0081539163366 0
          51.079128265 -0.0019494047156 0 57.013011932 -0.00090819160687 0
          74.315155029 4.9747382036e-006 0 62.303268433 -0.00056160317035 0
          42.871063232 -0.0032060632948 0 0 0 0
          21.859746933 -0.0092416014522 0 33.101303101 -0.0062438985333 0
          8.4720497131 -0.0020578182302 0 57.012851715 -0.0017223928589 0
          51.07875061 -0.0015715914778 0 21.90130806 -0.027965264395 0
          82.942405701 2.8558668729e-015 0 21.924131393 -0.024927692488 0
          21.940347672 -0.0030062107835 0 33.102745056 -0.0028943794314 0
          21.932535172 -0.0183423087 0 42.87140274 -0.0024573570117 0
          74.314888 -0.00034706675797 0 58.601268768 -4.6247791033e-005 0
          58.600463867 -0.0013781181769 0 33.101661682 -0.0047838892788 0
          62.303718567 0.00012361207337 0 21.935630798 -0.01319023408 0
          57.013179779 -0.00052215065807 0 42.872329712 -0.0028480305336 0
          74.315063477 0.00010190850298 0 51.078960419 -0.0010951143922 0
          51.078956604 -0.0027549492661 0 21.936952591 -0.0096197118983 0
          62.303005219 -0.0010844408534 0 33.101833344 -0.0036525907926 0
          42.871639252 -0.0018236921169 0 82.942092896 6.8065551703e-015 0
          21.937610626 -0.0071362336166 0 57.012516022 -0.002477766946 0
          7.8963646889 0.01341628097 0 0 0 0
          8.3963375092 -0.020215842873 0 8.4733982086 -0.0028339987621 0
          58.601264954 0.00024897363619 0 21.940942764 -0.0041345935315 0
          8.47219944 -0.021112980321 0 57.01329422 -0.0001264114253 0
          51.079101563 -0.00064938637661 0 62.303516388 0.00026614347007 0
          33.101909637 -0.0027573984116 0 8.4819974899 -0.015876730904 0
          33.103046417 -0.0039949701168 0 74.314483643 -0.00069164222805 0
          21.937976837 -0.0053552370518 0 58.600128174 -0.002125268802 0
          74.314888 0.00034706675797 0 8.4813280106 -0.011283775792 0
          42.871807098 -0.0012727518333 0 42.872360229 -0.0039120786823 0
          51.078727722 -0.0037770920899 0 8.4791221619 -0.0080464193597 0
          62.302593231 -0.0017006662674 0 21.93819809 -0.0040334607475 0
          33.10194397 -0.0020292066038 0 82.94140625 2.6897882759e-015 0
          57.013343811 0.00028023665072 0 58.601100922 0.00052150228294 0
          51.079193115 -0.00020951674378 0 57.012153625 -0.003466950031 0
          8.4769268036 -0.0058351405896 0 62.303268433 0.00056160317035 0
          0 0 0 42.871929169 -0.00077383115422 0
          0 0 0 0 0 0
          8.4751796722 -0.0038035502657 0 0 0 0
          21.941692352 -0.0055556581356 0 21.938346863 -0.0030178951565 0
          74.313713074 -0.00093882536748 0 0 0 0
          33.103427887 -0.0053869760595 0 8.4750299454 -0.0043011629023 0
          74.314483643 0.00069164222805 0 58.599666595 -0.0029852658045 0
          33.101966858 -0.001415022416 0 0 0 0
          42.872379303 -0.0052570700645 0 57.013301849 0.00069861958036 0
          51.079250336 0.00024717286578 0 21.938463211 -0.0022082664073 0
          82.940467834 3.3416998145e-014 0 8.4734716415 -0.0032020839863 0
          51.078460693 -0.0050840950571 0 62.301776886 -0.0021366360597 0
          42.872024536 -0.00029727155925 0 58.600803375 0.00085746170953 0
          0 0 0 62.303005219 0.0010844408534 0
          33.101993561 -0.00087215076201 0 0 0 0
          57.011672974 -0.0046715610661 0 0 0 0
          8.4774885178 -0.0050267190672 0 8.4722290039 -0.0023828658741 0
          74.312606812 -0.00093859969638 0 21.942640305 -0.0073603768833 0
          21.938570023 -0.0015349871246 0 74.313713074 0.00093882536748 0
          58.598781586 -0.0037870807573 0 0 0 0
          51.079269409 0.0007408715901 0 33.103904724 -0.0071615176275 0