<?xml version="1.0"?>
<VTKFile type="PolyData" version="0.1" byte_order="LittleEndian" compressor="vtkZLibDataCompressor">
  <PolyData>
    <Piece NumberOfPoints="1071" NumberOfVerts="0" NumberOfLines="0" NumberOfStrips="0" NumberOfPolys="2000">
      <PointData>
        <DataArray type="Float32" Name="PRESSURE" format="ascii" RangeMin="-18566.785156" RangeMax="0">
          0 -336.78625488 0 -335.13104248 0 -657.61560059
          -654.81420898 -324.98269653 -644.39367676 0 -974.92828369 -971.88946533
          -319.59298706 -638.1315918 -961.72894287 0 -1291.0081787 -1287.9772949
          -316.77429199 -955.4072876 -1277.9873047 -634.06903076 -1271.6580811 0
          -1606.2156982 -950.82781982 -316.36120605 -1603.2250977 -1593.3706055 -632.91766357
          -1266.8360596 -1587.0241699 -949.13671875 -1920.5773926 0 -315.78335571
          -1917.6240234 -631.72180176 -1907.925293 -1264.7896729 -1582.0880127 -1901.5788574
          -947.4440918 -2234.0869141 0 -1579.8067627 -2231.173584 -315.52825928
          -1262.7468262 -1896.6094971 -2221.6765137 -631.07067871 -2215.3664551 -946.42370605
          -1577.5311279 -1894.1730957 0 -2546.7536621 -1261.4361572 -2543.8908691
          -315.32369995 -2210.4243164 -2534.6494141 -630.60516357 -1891.7498779 -945.70471191
          -2528.4194336 -2207.888916 -1576.0092773 -1260.506958 -2523.5515137 0
          -2858.6035156 -2855.8066406 -315.22409058 -1890.0819092 -2846.8720703 -2205.3806152
          -630.36340332 -1574.9212646 -2520.9602051 -2840.7646484 -945.3168335 -2836.0087891
          -1259.9909668 -2203.6166992 0 -1888.8814697 -3169.6733398 -2518.4128418
          -3166.9584961 -315.18707275 -3158.3759766 -630.27093506 -2833.395752 -1574.3034668
          -3152.4296875 -945.17041016 -2202.3422852 -2516.592041 -1259.7973633 -3147.8149414
          -2830.8442383 -1888.1883545 -3480.0078125 0 -3477.3891602 -315.22409058
          -3469.1950684 -3145.2067871 -630.36340332 -1574.0718994 -2515.2734375 -945.3168335
          -2828.9963379 -3463.4418945 -2201.5969238 -1887.9279785 -3142.6782227 -1259.9909668
          -3458.9902344 0 -3789.6552734 -315.32369995 -2827.6569824 -3787.1452637
          -2514.4946289 -3456.4084473 -1574.3034668 -630.60516357 -3779.3662109 -3140.826416
          -2201.315918 -945.70471191 -3773.831543 -3453.9228516 -1888.1883545 -1260.506958
          -3769.557373 -2826.8596191 -3139.4841309 -2514.1999512 0 -4098.6660156
          -1574.9212646 -3767.0178223 -3452.0852051 -315.52825928 -4096.2744141 -2201.5969238
          -4088.9282227 -631.07067871 -946.42370605 -4083.6296387 -1888.8814697 -3764.5898438
          -2826.5568848 -3138.6796875 -3450.7531738 -4079.5410156 -2514.4946289 -1261.4361572
          -3762.7800293 -2202.3422852 -4077.0549316 -1576.0092773 0 -4407.0922852
          -4404.8256836 -315.78335571 -3138.3735352 -631.72180176 -4397.9208984 -2826.8596191
          -3449.9509277 -947.4440918 -1890.0819092 -4392.8686523 -4074.6945801 -2515.2734375
          -3761.4685059 -1262.7468262 -4388.9677734 -4072.921875 -2203.6166992 -3138.6796875
          -4386.5410156 -1577.5311279 -3449.6445313 -2827.6569824 0 -4714.984375
          -3760.675293 -4712.847168 -316.36120605 -4706.3852539 -632.91766357 -1891.7498779
          -4384.2539063 -2516.592041 -4071.6381836 -949.13671875 -4701.5820313 -1264.7896729
          -4697.8642578 -3449.9509277 -3139.4841309 -3760.3710938 -4382.5244141 -2205.3806152
          -2828.9963379 -4695.4990234 -1579.8067627 -4070.8583984 0 -5022.3925781
          -316.77429199 -5020.3867188 -634.06903076 -2518.4128418 -4381.2724609 -5014.3613281
          -4693.2861328 -1894.1730957 -3450.7531738 -950.82781982 -5009.8027344 -3760.675293
          -3140.826416 -4070.5585938 -5006.2578125 -1266.8360596 -4691.6020508 -2207.888916
          -2830.8442383 -4380.5087891 -5003.9511719 -1582.0880127 -3761.4685059 -4690.3833008
          -5329.3637695 -2520.9602051 0 -4070.8583984 -3452.0852051 -319.59298706
          -5327.4897461 -1896.6094971 -5001.8100586 -638.1315918 -5321.8881836 -3142.6782227
          -4380.2148438 -5317.5629883 -955.4072876 -2210.4243164 -1271.6580811 -5314.1748047
          -5000.1704102 -2833.395752 -4689.6367188 -3762.7800293 -4071.6381836 -1587.0241699
          -5311.9199219 -3453.9228516 -4380.5087891 -4998.9838867 -2523.5515137 -5635.9423828
          0 -1901.5788574 -5634.1977539 -5309.84375 -3145.2067871 -324.98269653
          -4689.3496094 -644.39367676 -5629.0014648 -5624.8925781 -961.72894287 -2836.0087891
          -4998.2548828 -4072.921875 -5308.2460938 -2215.3664551 -4381.2724609 -1277.9873047
          -3764.5898438 -5621.6401367 -4689.6367188 -3456.4084473 -5619.4248047 -1593.3706055
          -5307.0893555 -2528.4194336 -3147.8149414 -4997.9746094 -1907.925293 -5617.4052734
          0 -5942.1660156 -335.13104248 -5940.5483398 -4382.5244141 -5935.7353516
          -654.81420898 -4074.6945801 -3767.0178223 -4690.3833008 -2840.7646484 -971.88946533
          -5931.8193359 -5306.3774414 -2221.6765137 -5615.8442383 -4998.2548828 -1287.9772949
          -3458.9902344 -5928.6757813 -5926.4848633 -1603.2250977 -5614.7143555 -2534.6494141
          -3152.4296875 -5306.1035156 -4384.2539063 -4691.6020508 -4077.0549316 -5924.5092773
          -1917.6240234 -4998.9838867 -6248.0668945 -3769.557373 0 -336.78625488
          -6246.5717773 -657.61560059 -6242.1166992 -2846.8720703 -5614.0175781 -974.92828369
          -6238.3657227 -2231.173584 -5306.3774414 -5922.9775391 -3463.4418945 -1291.0081787
          -6235.3007813 -4693.2861328 -4386.5410156 -3158.3759766 -5613.7490234 -2543.8908691
          -6233.1152344 -5921.8701172 -4079.5410156 -5000.1704102 -1606.2156982 -5307.0893555
          -3773.831543 -1920.5773926 -6231.168457 -6553.6679688 -6552.2919922 -2855.8066406
          -5921.1860352 -6548.1679688 -3469.1950684 -5614.0175781 -6229.65625 -2234.0869141
          -4695.4990234 -6544.5498047 -5001.8100586 -4388.9677734 -6541.5283203 -5308.2460938
          -4083.6296387 -5920.9208984 -3166.9584961 -2546.7536621 -6228.5639648 -6539.3256836
          -3779.3662109 -5614.7143555 -6537.390625 -6227.8857422 -2858.6035156 -5003.9511719
          -4697.8642578 -5921.1860352 -3477.3891602 -6858.9824219 -6857.722168 -4392.8686523
          -5309.84375 -6853.9018555 -6535.8857422 -5615.8442383 -6850.3828125 -4088.9282227
          -6847.3666992 -6227.6235352 -3169.6733398 -3787.1452637 -6534.7978516 -5921.8701172
          -6845.121582 -5006.2578125 -4701.5820313 -5311.9199219 -6843.1791992 -5617.4052734
          -4397.9208984 -6227.8857422 -3480.0078125 -6534.1191406 -7164.0092773 -4096.2744141
          -5922.9775391 -7162.862793 -7159.3232422 -6841.6689453 -7155.8681641 -6533.859375
          -3789.6552734 -6228.5639648 -7152.8173828 -5314.1748047 -5009.8027344 -6840.5751953
          -4706.3852539 -5619.4248047 -7150.5024414 -5924.5092773 -4404.8256836 -6534.1191406
          -7148.534668 -6839.890625 -4098.6660156 -6229.65625 -7468.7333984 -7467.7011719
          -7147.0083008 -5317.5629883 -7464.4233398 -5621.6401367 -5014.3613281 -6839.6328125
          -7460.9990234 -6534.7978516 -5926.4848633 -4712.847168 -7457.8725586 -7145.9018555
          -6231.168457 -4407.0922852 -7455.4609375 -6839.890625 -6535.8857422 -7145.2128906
          -7453.4516602 -5321.8881836 -5624.8925781 -5928.6757813 -5020.3867188 -7451.9018555
          -7773.1196289 -4714.984375 -6233.1152344 -7772.2055664 -6840.5751953 -7144.9526367
          -7769.1796875 -7765.7573242 -6537.390625 -7450.7841797 -7762.5161133 -5629.0014648
          -7145.2128906 -7759.9833984 -5931.8193359 -5327.4897461 -6841.6689453 -6235.3007813
          -5022.3925781 -7450.0932617 -7757.9189453 -6539.3256836 -7145.9018555 -7756.3422852
          -8077.1088867 -7449.8242188 -8076.3237305 -6843.1791992 -8073.5527344 -8070.1118164
          -5935.7353516 -5634.1977539 -7755.2172852 -6238.3657227 -5329.3637695 -8066.7211914
          -6541.5283203 -7450.0932617 -7147.0083008 -8064.0463867 -7754.5195313 -6845.121582
          -8061.9189453 -7450.7841797 -5940.5483398 -6242.1166992 -5635.9423828 -8060.3144531
          -7754.2402344 -7148.534668 -8380.6142578 -6544.5498047 -8379.9755859 -8377.4804688
          -8374.0146484 -8059.1796875 -6847.3666992 -8370.4482422 -7451.9018555 -7754.5195313
          -8367.6191406 -7150.5024414 -8058.4614258 -6246.5717773 -5942.1660156 -6548.1679688
          -8365.4277344 -7755.2172852 -7453.4516602 -6850.3828125 -8058.1782227 -8363.7988281
          -8683.5146484 -8683.0488281 -7152.8173828 -8680.8769531 -8362.6435547 -8677.4003906
          -7756.3422852 -8058.4614258 -8673.6455078 -6248.0668945 -7455.4609375 -6552.2919922
          -6853.9018555 -8670.6611328 -8361.8984375 -7155.8681641 -8059.1796875 -8668.4199219
          -7757.9189453 -8361.6220703 -7457.8725586 -8666.7792969 -6553.6679688 -8985.6445313
          -8985.3945313 -8060.3144531 -8983.625 -6857.722168 -8665.6074219 -7759.9833984
          -8361.8984375 -8980.1796875 -7159.3232422 -8976.2460938 -7460.9990234 -8664.8583984
          -8973.1240234 -8061.9189453 -8362.6435547 -8970.8652344 -7762.5161133 -8664.5927734
          -6858.9824219 -7162.862793 -8969.2539063 -8363.7988281 -9286.7880859 -7464.4233398
          -8064.0463867 -9286.8115234 -9285.5703125 -8664.8583984 -8968.1132813 -9282.2402344
          -7765.7573242 -9278.1621094 -8967.4179688 -8365.4277344 -9274.9443359 -8665.6074219
          -7164.0092773 -8066.7211914 -9272.7353516 -7467.7011719 -8967.1484375 -9271.2353516
          -7769.1796875 -8666.7792969 -8367.6191406 -9586.6669922 -8967.4179688 -9587.0439453
          -9270.2285156 -9586.5117188 -8070.1118164 -9583.4326172 -7468.7333984 -9579.2861328
          -8668.4199219 -9269.6357422 -8370.4482422 -8968.1132813 -9576.0576172 -7772.2055664
          -9574.0078125 -9269.3486328 -8073.5527344 -8670.6611328 -9572.7402344 -8969.2539063
          -8374.0146484 -9269.6357422 -9884.9248047 -9571.9765625 -9885.7636719 -7773.1196289
          -9886.1972656 -9883.5771484 -8970.8652344 -8076.3237305 -9879.4980469 -8673.6455078
          -9571.4912109 -9270.2285156 -9876.4042969 -8377.4804688 -9874.6748047 -9571.2089844
          -8973.1240234 -9271.2353516 -9873.7822266 -8677.4003906 -8077.1088867 -9571.4912109
          -9873.3232422 -10181.114258 -8379.9755859 -10182.557617 -10184.308594 -9272.7353516
          -8976.2460938 -10182.455078 -9571.9765625 -9872.9335938 -10178.667969 -8680.8769531
          -10175.929688 -9872.7392578 -9274.9443359 -10174.737305 -8380.6142578 -9572.7402344
          -8980.1796875 -10174.381836 -8683.0488281 -9872.9335938 -10174.274414 -9278.1621094
          -10474.674805 -10476.910156 -9574.0078125 -10480.451172 -8983.625 -10479.798828
          -9873.3232422 -10174.077148 -10476.633789 -10474.55957 -8683.5146484 -9576.0576172
          -10174.067383 -9282.2402344 -10474.202148 -9873.7822266 -8985.3945313 -10474.62793
          -10174.077148 -9579.2861328 -9874.6748047 -10475.069336 -9285.5703125 -10764.914063
          -10768.181641 -10774.128906 -10174.274414 -10775.267578 -10475.354492 -10773.175781
          -8985.6445313 -9876.4042969 -9583.4326172 -10772.175781 -10475.540039 -10174.381836
          -9286.8115234 -10773.091797 -10774.756836 -10475.354492 -9879.4980469 -9586.5117188
          -10174.737305 -10776.250977 -11050.980469 -11055.581055 -11064.725586 -9286.7880859
          -10475.069336 -11068.426758 -10777.378906 -11068.003906 -9883.5771484 -10175.929688
          -11068.662109 -9587.0439453 -10474.62793 -10777.662109 -11071.525391 -11075.163086
          -10178.667969 -10777.378906 -9886.1972656 -10474.202148 -11078.422852 -9586.6669922
          -11331.838867 -10776.250977 -11338.147461 -11351.487305 -11080.572266 -11358.750977
          -10182.455078 -10474.55957 -11360.835938 -9885.7636719 -11364.03418 -10774.756836
          -11080.895508 -11369.799805 -10476.633789 -10184.308594 -11080.572266 -11376.294922
          -10773.091797 -9884.9248047 -11381.907227 -11078.422852 -11606.24707 -10479.798828
          -11614.724609 -11633.511719 -11385.077148 -10772.175781 -10182.557617 -11645.651367
          -11651.455078 -11075.163086 -11385.665039 -11658.466797 -11668.306641 -10480.451172
          -10773.175781 -10181.114258 -11385.077148 -11071.525391 -11678.517578 -11686.863281
          -11381.907227 -10775.267578 -10476.910156 -11068.662109 -11872.722656 -11883.930664
          -11691.412109 -11909.700195 -11928.413086 -11939.572266 -11376.294922 -11692.795898
          -11952.009766 -10774.128906 -11068.003906 -10474.674805 -11967.288086 -11691.412109
          -11369.799805 -11982.257813 -11994.128906 -11068.426758 -10768.181641 -11686.863281
          -11364.03418 -12129.516602 -12144.106445 -12001.387695 -12178.666016 -12205.99707
          -11678.517578 -12224.456055 -11064.725586 -12004.095703 -10764.914063 -12244.180664
          -11360.835938 -12266.811523 -11668.306641 -12001.387695 -12288.555664 -11055.581055
          -11358.750977 -12306.045898 -11994.128906 -11658.466797 -12318.063477 -12374.579102
          -12393.273438 -12438.621094 -12476.81543 -11982.257813 -11351.487305 -11050.980469
          -12504.740234 -11651.455078 -12322.362305 -12534.161133 -12567.402344 -11967.288086
          -12318.063477 -12599.549805 -11338.147461 -11645.651367 -12306.045898 -12626.020508
          -11952.009766 -12644.379883 -12605.577148 -12629.129883 -11633.511719 -12687.349609
          -12288.555664 -11331.838867 -12738.798828 -11939.572266 -12778.9375 -12650.579102
          -12821.87793 -12266.811523 -12870.679688 -12644.379883 -11614.724609 -11928.413086
          -12918.052734 -12244.180664 -12626.020508 -12957.048828 -11606.24707 -12982.30957
          -11909.700195 -12819.933594 -12599.549805 -12849.111328 -12922.283203 -12224.456055
          -12989.722656 -12991.402344 -13046.12793 -13108.200195 -12567.402344 -11883.930664
          -13178.307617 -12982.30957 -12205.99707 -13246.37793 -12534.161133 -12957.048828
          -13301.605469 -11872.722656 -12178.666016 -13335.222656 -12918.052734 -13014.886719
          -12504.740234 -13050.407227 -13140.401367 -13226.899414 -13348.87793 -13304.695313
          -12870.679688 -13391.908203 -12144.106445 -13335.222656 -12476.81543 -13489.161133
          -13585.609375 -12821.87793 -13301.605469 -12129.516602 -13664.27832 -12438.621094
          -13712.476563 -13246.37793 -12778.9375 -13187.510742 -13229.803711 -13337.49707
          -13445.176758 -13732.318359 -13548.277344 -12393.273438 -13178.307617 -13665.473633
          -12738.798828 -13712.476563 -13797.824219 -13108.200195 -13936.050781 -13664.27832
          -12374.579102 -12687.349609 -14054.549805 -13585.609375 -13046.12793 -14131.555664
          -13334.71875 -13383.430664 -13506.960938 -14159.362305 -13634.600586 -12629.129883
          -13764.412109 -13489.161133 -12989.722656 -13917.875977 -14131.555664 -14099.362305
          -13391.908203 -12605.577148 -14300.458984 -14054.549805 -12922.283203 -14489.115234
          -13304.695313 -13936.050781 -14619.617188 -13453.435547 -13506.772461 -12849.111328
          -13639.735352 -14658.005859 -13783.140625 -13797.824219 -13942.323242 -13226.899414
          -14142.448242 -14619.617188 -14390.412109 -12819.933594 -13665.473633 -14678.058594
          -13140.401367 -14489.115234 -14982.347656 -13548.277344 -14300.458984 -15205.677734
          -13050.407227 -13541.224609 -13595.966797 -13729.936523 -15255.749023 -14099.362305
          -13884.834961 -13445.176758 -14072.047852 -14319.46875 -15205.677734 -13014.886719
          -14643.37793 -13917.875977 -13337.49707 -15051.442383 -14982.347656 -15538.87207
          -13764.412109 -14678.058594 -15947.572266 -13229.803711 -13597.59082 -13652.691406
          -16063.725586 -14390.412109 -13778.219727 -13634.600586 -13937.62793 -14145.65918
          -15947.572266 -13187.510742 -14443.235352 -14142.448242 -14871.077148 -13506.960938
          -15538.87207 -15417.878906 -16122.921875 -13942.323242 -15051.442383 -13383.430664
          -16923.224609 -13783.140625 -13621.830078 -14643.37793 -13675.735352 -17267.265625
          -13794.152344 -13962.125 -14194.144531 -13334.71875 -16923.224609 -14516.006836
          -14319.46875 -13639.735352 -14953.266602 -16122.921875 -15588.188477 -14072.047852
          -16669.496094 -15417.878906 -13506.772461 -18018.5 -13884.834961 -14871.077148
          -18566.785156 -13453.435547 -18018.5 -14443.235352 -13729.936523 -16669.496094
          -14145.65918 -13595.966797 -15588.188477 -13937.62793 -14953.266602 -13541.224609
          -13778.219727 -14516.006836 -14194.144531 -13652.691406 -13962.125 -13597.59082
          -13794.152344 -13675.735352 -13621.830078
        </DataArray>
        <DataArray type="Float32" Name="VELOCITY" NumberOfComponents="3" ComponentName0="X-VELOCITY" ComponentName1="Y-VELOCITY" ComponentName2="Z-VELOCITY" format="ascii" RangeMin="0" RangeMax="90.575569153">
          0 0 0 0 0 0
          18.233930588 0.017337987199 0 18.086046219 0.066135384142 0
          26.292106628 0.14340342581 0 0 0 0
          17.924280167 0.10057204962 0 26.36895752 0.1420083344 0
          26.462409973 0.15375737846 0 39.893932343 0.095196403563 0
          0 0 0 17.741949081 0.12084128708 0
          39.908805847 0.11285723746 0 39.893211365 0.12346682698 0
          26.576997757 0.16306607425 0 48.489963531 0.1157117784 0
          0 0 0 17.544778824 0.13084369898 0
          48.50838089 0.1237463057 0 39.86259079 0.13186596334 0
          26.702997208 0.16838593781 0 48.534694672 0.13233868778 0
          39.826126099 0.13795034587 0 57.096813202 0.093578875065 0
          0 0 0 48.567222595 0.13850149512 0
          57.113609314 0.09922157228 0 17.341001511 0.13433209062 0
          26.832309723 0.17018061876 0 57.127639771 0.10475771129 0
          48.604007721 0.14256559312 0 39.787773132 0.14164818823 0
          57.140037537 0.10933176428 0 0 0 0
          62.711490631 0.080008596182 0 62.733474731 0.083046935499 0
          17.136739731 0.13382600248 0 62.758171082 0.087330453098 0
          26.959775925 0.16922940314 0 57.151691437 0.11268887669 0
          48.643157959 0.14462953806 0 39.749481201 0.1431055367 0
          62.785209656 0.090934850276 0 0 0 0
          64.314613342 0.056248743087 0 57.163085938 0.1147255376 0
          16.936134338 0.13082157075 0 64.338661194 0.057610295713 0
          62.813781738 0.093532815576 0 48.683067322 0.14482361078 0
          27.082355499 0.1661773622 0 64.363716125 0.059900093824 0
          39.712360382 0.14259213209 0 64.38986969 0.062170058489 0
          62.843257904 0.095048770308 0 57.174407959 0.11542423069 0
          68.118598938 0.034352399409 0 0 0 0
          64.416778564 0.063958011568 0 16.741945267 0.12620572746 0
          68.137916565 0.03576309979 0 48.722564697 0.14334273338 0
          27.198343277 0.16150709987 0 68.157539368 0.037265989929 0
          62.873111725 0.095492437482 0 68.177932739 0.038722261786 0
          39.677070618 0.14040875435 0 57.185676575 0.11484484375 0
          64.444114685 0.065107703209 0 68.199073792 0.039881896228 0
          48.760852814 0.14041647315 0 80.1746521 0.016895670444 0
          0 0 0 16.556018829 0.12052421272 0
          80.191604614 0.01784333773 0 64.471580505 0.065574504435 0
          27.306840897 0.15558084846 0 62.902885437 0.094921737909 0
          80.209159851 0.018722310662 0 68.22077179 0.040651526302 0
          57.196849823 0.11310198903 0 39.644008636 0.13684052229 0
          80.227386475 0.019464986399 0 48.797409058 0.13627783954 0
          80.246200562 0.020032336935 0 64.498916626 0.065365031362 0
          88.765220642 1.2519756824e-013 0 68.242767334 0.04099887982 0
          0 0 0 62.932193756 0.093425229192 0
          16.379575729 0.11413227767 0 88.782836914 1.002453532e-013 0
          27.407440186 0.14868058264 0 88.801696777 7.381707821e-014 0
          57.207855225 0.11033783108 0 80.265464783 0.020405856892 0
          39.613372803 0.13214170933 0 88.821540833 2.7894631321e-014 0
          68.264823914 0.040917787701 0 64.525878906 0.064512893558 0
          88.842102051 -1.4482494793e-014 0 48.831920624 0.13114576042 0
          62.960727692 0.091107569635 0 80.284996033 0.020573215559 0
          0 0 0 80.1746521 -0.016895670444 0
          16.213415146 0.10727626085 0 80.191604614 -0.01784333773 0
          27.500040054 0.14103525877 0 57.218616486 0.10670241714 0
          80.209159851 -0.018722310662 0 88.863174438 -5.6003775429e-014 0
          68.286712646 0.040419504046 0 80.227386475 -0.019464986399 0
          64.552253723 0.063071601093 0 39.585235596 0.12653471529 0
          80.304588318 0.020527075976 0 88.884521484 -8.5057340945e-014 0
          62.988243103 0.088082067668 0 80.246200562 -0.020032336935 0
          48.864200592 0.12521852553 0 68.118598938 -0.034352399409 0
          0 0 0 68.137916565 -0.03576309979 0
          68.30821228 0.039539951831 0 16.058019638 0.10013724864 0
          80.324050903 0.02027242817 0 57.229064941 0.10234367847 0
          80.265464783 -0.020405856892 0 68.157539368 -0.037265989929 0
          27.584737778 0.13283705711 0 64.577850342 0.061117403209 0
          88.905906677 -9.9603973073e-014 0 68.177932739 -0.038722261786 0
          39.559581757 0.12021332234 0 63.014549255 0.084469117224 0
          80.284996033 -0.020573215559 0 68.199073792 -0.039881896228 0
          48.894165039 0.1186728552 0 80.343177795 0.019835390151 0
          68.329124451 0.038344640285 0 88.927116394 -1.1475422121e-013 0
          64.314613342 -0.056248743087 0 0 0 0
          68.22077179 -0.040651526302 0 57.239131927 0.097403332591 0
          64.602485657 0.058746799827 0 64.338661194 -0.057610295713 0
          15.91364193 0.092854343355 0 80.304588318 -0.020527075976 0
          27.661754608 0.12425036728 0 64.363716125 -0.059900093824 0
          64.38986969 -0.062170058489 0 39.536338806 0.11334608495 0
          68.242767334 -0.04099887982 0 63.039489746 0.080391451716 0
          88.947944641 -1.2352816795e-013 0 80.361801147 0.019258346409 0
          68.349266052 0.036910463125 0 48.921787262 0.11166471988 0
          80.324050903 -0.02027242817 0 64.416778564 -0.063958011568 0
          64.625984192 0.056055054069 0 68.264823914 -0.040917787701 0
          57.248748779 0.092013075948 0 64.444114685 -0.065107703209 0
          62.711490631 -0.080008596182 0 0 0 0
          15.780344963 0.085537016392 0 62.733474731 -0.083046935499 0
          88.968238831 -1.170567007e-013 0 62.758171082 -0.087330453098 0
          27.731407166 0.1154159829 0 80.343177795 -0.019835390151 0
          80.379798889 0.018574988469 0 62.785209656 -0.090934850276 0
          64.471580505 -0.065574504435 0 39.515392303 0.10607865453 0
          63.06294632 0.075960054994 0 68.286712646 -0.040419504046 0
          68.368515015 0.035285819322 0 62.813781738 -0.093532815576 0
          48.947090149 0.10432969779 0 64.648231506 0.053103938699 0
          64.498916626 -0.065365031362 0 80.361801147 -0.019258346409 0
          57.257854462 0.086288660765 0 62.843257904 -0.095048770308 0
          88.987884521 -9.5811372887e-014 0 68.30821228 -0.039539951831 0
          57.096813202 -0.093578875065 0 0 0 0
          80.397064209 0.017784038559 0 15.658042908 0.078271627426 0
          57.113609314 -0.09922157228 0 27.794071198 0.10645294935 0
          57.127639771 -0.10475771129 0 62.873111725 -0.095492437482 0
          63.084838867 0.071257956326 0 64.525878906 -0.064512893558 0
          68.386779785 0.033465623856 0 57.140037537 -0.10933176428 0
          39.496616364 0.098534978926 0 57.151691437 -0.11268887669 0
          48.97013092 0.096782885492 0 80.379798889 -0.018574988469 0
          68.329124451 -0.038344640285 0 89.006767273 -8.0865896661e-014 0
          64.669174194 0.049911562353 0 62.902885437 -0.094921737909 0
          64.552253723 -0.063071601093 0 57.266403198 0.080324813724 0
          57.163085938 -0.1147255376 0 80.413536072 0.016856657341 0
          48.489963531 -0.1157117784 0 0 0 0
          48.50838089 -0.1237463057 0 15.546525955 0.071124874055 0
          48.534694672 -0.13233868778 0 62.932193756 -0.093425229192 0
          68.404037476 0.031424477696 0 27.850162506 0.09745901078 0
          63.105155945 0.066339448094 0 57.174407959 -0.11542423069 0
          68.349266052 -0.036910463125 0 48.567222595 -0.13850149512 0
          39.479854584 0.090817995369 0 80.397064209 -0.017784038559 0
          64.577850342 -0.061117403209 0 89.024734497 -7.9947414791e-014 0
          48.99098587 0.089119099081 0 48.604007721 -0.14256559312 0
          64.688804626 0.046490304172 0 57.185676575 -0.11484484375 0
          62.960727692 -0.091107569635 0 80.429077148 0.015789631754 0
          57.274372101 0.074196368456 0 48.643157959 -0.14462953806 0
          68.368515015 -0.035285819322 0 68.42023468 0.029199235141 0
          0 0 0 57.196849823 -0.11310198903 0
          39.893932343 -0.095196403563 0 80.413536072 -0.016856657341 0
          64.602485657 -0.058746799827 0 39.908805847 -0.11285723746 0
          15.445484161 0.064145646989 0 48.683067322 -0.14482361078 0
          63.123920441 0.061253085732 0 39.893211365 -0.12346682698 0
          27.900125504 0.088510505855 0 62.988243103 -0.088082067668 0
          89.041610718 -7.0416891448e-014 0 39.46496582 0.083009853959 0
          39.86259079 -0.13186596334 0 48.722564697 -0.14334273338 0
          39.826126099 -0.13795034587 0 49.009757996 0.081413656473 0
          64.707092285 0.042909335345 0 57.207855225 -0.11033783108 0
          80.443580627 0.014658709988 0 64.625984192 -0.056055054069 0
          68.386779785 -0.033465623856 0 39.787773132 -0.14164818823 0
          57.281745911 0.067965470254 0 63.014549255 -0.084469117224 0
          80.429077148 -0.015789631754 0 68.43523407 0.026934757829 0
          48.760852814 -0.14041647315 0 0 0 0
          26.292106628 -0.14340342581 0 39.749481201 -0.1431055367 0
          15.354525566 0.057365931571 0 63.141136169 0.056069985032 0
          57.218616486 -0.10670241714 0 26.36895752 -0.1420083344 0
          89.0573349 -7.4391393653e-014 0 26.462409973 -0.15375737846 0
          27.944421768 0.079661719501 0 39.451797485 0.075171396136 0
          26.576997757 -0.16306607425 0 48.797409058 -0.13627783954 0
          80.456962585 0.013592442498 0 64.648231506 -0.053103938699 0
          64.723922729 0.03930798173 0 39.712360382 -0.14259213209 0
          68.404037476 -0.031424477696 0 26.702997208 -0.16838593781 0
          63.039489746 -0.080391451716 0 49.026557922 0.073722243309 0
          80.443580627 -0.014658709988 0 57.229064941 -0.10234367847 0
          57.288520813 0.061687674373 0 26.832309723 -0.17018061876 0
          68.448913574 0.024797705933 0 39.677070618 -0.14040875435 0
          48.831920624 -0.13114576042 0 89.071960449 -7.4870312857e-014 0
          26.959775925 -0.16922940314 0 63.156772614 0.050882000476 0
          18.233930588 -0.017337987199 0 0 0 0
          18.086046219 -0.066135384142 0 15.27319622 0.050801273435 0
          64.669174194 -0.049911562353 0 27.983510971 0.07094398886 0
          17.924280167 -0.10057204962 0 63.06294632 -0.075960054994 0
          57.239131927 -0.097403332591 0 68.42023468 -0.029199235141 0
          39.644008636 -0.13684052229 0 17.741949081 -0.12084128708 0
          39.440200806 0.067340508103 0 80.469261169 0.012644427828 0
          27.082355499 -0.1661773622 0 64.73916626 0.035805828869 0
          80.456962585 -0.013592442498 0 17.544778824 -0.13084369898 0
          48.864200592 -0.12521852553 0 49.041507721 0.066079288721 0
          57.294658661 0.055409815162 0 17.341001511 -0.13433209062 0
          68.461250305 0.02278582193 0 27.198343277 -0.16150709987 0
          39.613372803 -0.13214170933 0 89.085632324 -7.0386133987e-014 0
          63.084838867 -0.071257956326 0 64.688804626 -0.046490304172 0
          57.248748779 -0.092013075948 0 63.170753479 0.045754294842 0
          17.136739731 -0.13382600248 0 68.43523407 -0.026934757829 0
          0 0 0 48.894165039 -0.1186728552 0
          0 0 0 0 0 0
          15.200997353 0.044451054186 0 0 0 0
          28.017860413 0.062364637852 0 27.306840897 -0.15558084846 0
          80.480621338 0.011675543152 0 0 0 0
          39.430030823 0.059530161321 0 16.936134338 -0.13082157075 0
          80.469261169 -0.012644427828 0 64.75276947 0.032364048064 0
          39.585235596 -0.12653471529 0 0 0 0
          49.054725647 0.058497674763 0 63.105155945 -0.066339448094 0
          57.257854462 -0.086288660765 0 27.407440186 -0.14868058264 0
          89.098327637 -6.5943419074e-014 0 16.741945267 -0.12620572746 0
          57.300106049 0.049160372466 0 68.472434998 0.020633291453 0
          48.921787262 -0.11166471988 0 64.707092285 -0.042909335345 0
          0 0 0 68.448913574 -0.024797705933 0
          39.559581757 -0.12021332234 0 0 0 0
          63.183094025 0.040665920824 0 0 0 0
          15.13739872 0.038298841566 0 16.556018829 -0.12052421272 0
          80.491081238 0.010428854264 0 28.04791832 0.053906407207 0
          27.500040054 -0.14103525877 0 80.480621338 -0.011675543152 0
          64.764961243 0.028757950291 0 0 0 0
          57.266403198 -0.080324813724 0 39.421157837 0.051728259772 0
          63.123920441 -0.061253085732 0 48.947090149 -0.10432969779 0
          49.066314697 0.050972543657 0 64.723922729 -0.03930798173 0
          39.536338806 -0.11334608495 0 89.10974884 -7.8402995901e-014 0
          16.379575729 -0.11413227767 0 0 0 0
          68.482696533 0.01802325435 0 57.304828644 0.042936950922 0
          27.584737778 -0.13283705711 0 68.461250305 -0.02278582193 0
          63.193950653 0.035503160208 0 80.500419617 0.0088342502713 0
          0 0 0 57.274372101 -0.074196368456 0
          48.97013092 -0.096782885492 0 80.491081238 -0.010428854264 0