<?xml version="1.0"?>
<VTKFile type="PolyData" version="0.1" byte_order="LittleEndian" compressor="vtkZLibDataCompressor">
  <PolyData>
    <Piece NumberOfPoints="1071" NumberOfVerts="0" NumberOfLines="0" NumberOfStrips="0" NumberOfPolys="2000">
      <PointData>
        <DataArray type="Float32" Name="PRESSURE" format="ascii" RangeMin="0" RangeMax="28400.333984">
          0 494.05337524 0 493.58538818 0 966.9798584
          964.1762085 483.44613647 953.69195557 0 1432.7139893 1428.9117432
          473.2286377 940.91046143 1418.1011963 0 1894.2398682 1890.0244141
          467.17721558 1404.357666 1878.8178711 931.8973999 1864.4931641 0
          2352.2851563 1393.807373 463.20254517 2347.880127 2336.378418 925.29455566
          1853.0245361 2321.7055664 1385.5574951 2807.09375 0 460.86392212
          2802.6113281 921.0010376 2790.9719238 1843.7349854 2309.6774902 2776.1777344
          1379.8382568 3258.8293457 0 2299.7487793 3254.3479004 459.22842407
          1837.0321045 2763.8618164 3242.7368164 917.94604492 3228.0368652 1375.6705322
          2292.4001465 2753.5869141 0 3707.6628418 1832.0532227 3703.2460938
          458.171875 3215.6611328 3691.8178711 915.93939209 2745.8515625 1372.8830566
          3677.4050293 3205.269043 2286.8671875 1828.6716309 3665.1630859 0
          4153.78125 4149.4824219 457.58224487 2739.9736328 4138.3725586 3197.3518066
          914.8026123 2283.0644531 3654.8391113 4124.4111328 1371.2817383 4112.465332
          1826.7072754 3191.2971191 0 2735.8981934 4597.3813477 3646.9035645
          4593.2456055 457.40759277 4582.5673828 914.45043945 4102.3603516 2280.8374023
          4569.1914063 1370.7766113 3187.0717773 3640.8078613 1826.0817871 4557.6762695
          4094.5393066 2733.4973145 5038.6640625 0 5034.7270508 457.58224487
          5024.5732422 4547.9125977 914.8026123 2280.1237793 3636.532959 1371.2817383
          4088.512207 5011.8901367 3184.5720215 2732.7250977 4540.3139648 1826.7072754
          5000.9135742 0 5477.8266602 458.171875 4084.2695313 5474.1162109
          3633.9960938 4991.590332 2280.8374023 915.93939209 5464.5600586 4534.4443359
          3183.7658691 1372.8830566 5452.6538086 4984.3012695 2733.4973145 1828.6716309
          5442.3027344 4081.7460938 4530.300293 3633.177002 0 5915.0595703
          2283.0644531 5433.4980469 4978.6611328 459.22842407 5911.5981445 3184.5720215
          5902.6962891 917.94604492 1375.6705322 5891.6298828 2735.8981934 5426.5898438
          4080.9306641 4527.831543 4974.6699219 5881.9726563 3633.9960938 1832.0532227
          5421.237793 3187.0717773 5873.75 2286.8671875 0 6350.5429688
          6347.3461914 460.86392212 4527.0332031 921.0010376 6339.1430664 4081.7460938
          4972.2895508 1379.8382568 2739.9736328 6328.965332 5867.2797852 3636.532959
          5417.4433594 1837.0321045 6320.0561523 5862.2626953 3191.2971191 4527.831543
          6312.4648438 2292.4001465 4971.519043 4084.2695313 0 6784.4428711
          5415.1782227 6781.5244141 463.20254517 6774.0537109 925.29455566 2745.8515625
          6306.4794922 3640.8078613 5858.7016602 1385.5574951 6764.8022461 1843.7349854
          6756.6835938 4972.2895508 4530.300293 5414.4448242 6301.8369141 3197.3518066
          4088.512207 6749.765625 2299.7487793 5856.5732422 0 7216.9125977
          467.17721558 7214.2822266 931.8973999 3646.9035645 6298.5385742 7207.5727539
          6744.3051758 2753.5869141 4974.6699219 1393.807373 7199.277832 5415.1782227
          4534.4443359 5855.8842773 7191.9868164 1853.0245361 6740.0708008 3205.269043
          4094.5393066 6296.5664063 7185.7773438 2309.6774902 5417.4433594 6737.0610352
          7648.0878906 3654.8391113 0 5856.5732422 4978.6611328 473.2286377
          7645.7548828 2763.8618164 7180.8779297 940.91046143 7639.8325195 4540.3139648
          6295.9277344 7632.5214844 1404.357666 3215.6611328 1864.4931641 7626.09375
          7177.0820313 4102.3603516 6735.2602539 5421.237793 5858.7016602 2321.7055664
          7620.6274414 4984.3012695 6296.5664063 7174.3842773 3665.1630859 8078.0878906
          0 2776.1777344 8076.0610352 7616.3232422 4547.9125977 483.44613647
          6734.6782227 953.69195557 8070.9536133 8064.6572266 1418.1011963 4112.465332
          7172.7709961 5862.2626953 7612.9960938 3228.0368652 6298.5385742 1878.8178711
          5426.5898438 8059.1289063 6735.2602539 4991.590332 8054.4423828 2336.378418
          7610.6352539 3677.4050293 4557.6762695 7172.25 2790.9719238 8050.7705078
          0 8507.0126953 493.58538818 8505.3027344 6301.8369141 8501.0429688
          964.1762085 5867.2797852 5433.4980469 6737.0610352 4124.4111328 1428.9117432
          8495.7978516 7609.2246094 3242.7368164 8047.9443359 7172.7709961 1890.0244141
          5000.9135742 8491.2138672 8487.3505859 2347.880127 8045.9458008 3691.8178711
          4569.1914063 7608.7685547 6306.4794922 6740.0708008 5873.75 8484.3535156
          2802.6113281 7174.3842773 8934.9433594 5442.3027344 0 494.05337524
          8933.5644531 966.9798584 8930.1933594 4138.3725586 8044.753418 1432.7139893
          8926.0517578 3254.3479004 7609.2246094 8482.0644531 5011.8901367 1894.2398682
          8922.4667969 6744.3051758 6312.4648438 4582.5673828 8044.3676758 3703.2460938
          8919.4804688 8480.4560547 5881.9726563 7177.0820313 2352.2851563 7610.6352539
          5452.6538086 2807.09375 8917.2089844 9361.9404297 9360.9091797 4149.4824219
          8479.4980469 9358.484375 5024.5732422 8044.753418 8915.5019531 3258.8293457
          6749.765625 9355.5136719 7180.8779297 6320.0561523 9353.0019531 7612.9960938
          5891.6298828 8479.1894531 4593.2456055 3707.6628418 8914.3164063 9350.9619141
          5464.5600586 8045.9458008 9349.4833984 8913.6123047 4153.78125 7185.7773438
          6756.6835938 8479.4980469 5034.7270508 9788.0400391 9787.3828125 6328.965332
          7616.3232422 9785.9804688 9348.4130859 8047.9443359 9784.2744141 5902.6962891
          9782.9326172 8913.3896484 4597.3813477 5474.1162109 9347.6914063 8480.4560547
          9781.9326172 7191.9868164 6764.8022461 7620.6274414 9781.3310547 8050.7705078
          6339.1430664 8913.6123047 5038.6640625 9347.2695313 10213.257813 5911.5981445
          8482.0644531 10213.006836 10212.729492 9780.9697266 10212.416016 9347.1416016
          5477.8266602 8914.3164063 10212.374023 7626.09375 7199.277832 9780.7695313
          6774.0537109 8054.4423828 10212.532227 8484.3535156 6347.3461914 9347.2695313
          10212.918945 9780.6679688 5915.0595703 8915.5019531 10637.583008 10637.782227
          10213.362305 7632.5214844 10638.763672 8059.1289063 7207.5727539 9780.6435547
          10640.011719 9347.6914063 8487.3505859 6781.5244141 10641.438477 10213.757813
          8917.2089844 6350.5429688 10642.913086 9780.6679688 9348.4130859 10214.023438
          10644.431641 7639.8325195 8064.6572266 8491.2138672 7214.2822266 10645.798828
          11060.977539 6784.4428711 8919.4804688 11061.68457 9780.7695313 10214.115234
          11064.100586 11067.132813 9349.4833984 10646.883789 11070.249023 8070.9536133
          10214.023438 11073.243164 8495.7978516 7645.7548828 9780.9697266 8922.4667969
          7216.9125977 10647.569336 11076.072266 9350.9619141 10213.757813 11078.514648
          11483.37207 10647.796875 11484.662109 9781.3310547 11488.739258 11493.842773
          8501.0429688 8076.0610352 11080.399414 8926.0517578 7648.0878906 11498.931641
          9353.0019531 10647.569336 10213.362305 11503.706055 11081.564453 9781.9326172
          11508.077148 10646.883789 8505.3027344 8930.1933594 8078.0878906 11511.782227
          11081.956055 10212.918945 11904.666992 9355.5136719 11906.634766 11912.662109
          11920.206055 11514.595703 9782.9326172 11927.630859 10645.798828 11081.564453
          11934.514648 10212.532227 11516.322266 8933.5644531 8507.0126953 9358.484375
          11940.719727 11080.399414 10644.431641 9784.2744141 11516.914063 11945.924805
          12324.724609 12327.490234 10212.374023 12335.834961 11949.84082 12346.286133
          11078.514648 11516.322266 12356.505859 8934.9433594 10642.913086 9360.9091797
          9785.9804688 12365.916016 11952.250977 10212.416016 11514.595703 12374.323242
          11076.072266 11953.082031 10641.438477 12381.335938 9361.9404297 12743.367188
          12747.082031 11511.782227 12758.203125 9787.3828125 12386.59668 11073.243164
          11952.250977 12772.152344 10212.729492 12785.742188 10640.011719 12389.858398
          12798.202148 11508.077148 11949.84082 12809.275391 11070.249023 12390.961914
          9788.0400391 10213.006836 12818.490234 11945.924805 13160.373047 10638.763672
          11503.706055 13165.224609 13179.695313 12389.858398 12825.416992 13197.87793
          11067.132813 13215.557617 12829.716797 11940.719727 13231.72168 12386.59668
          10213.257813 11498.931641 13246.041992 10637.782227 12831.135742 13257.949219
          11064.100586 12381.335938 11934.514648 13575.466797 12829.716797 13581.689453
          13266.913086 13600.220703 11493.842773 13623.553711 10637.583008 13646.220703
          12374.323242 13272.433594 11927.630859 12825.416992 13666.908203 11061.68457
          13685.194336 13274.251953 11488.739258 12365.916016 13700.375977 12818.490234
          11920.206055 13272.433594 13988.321289 13711.769531 13996.201172 11060.977539
          14019.670898 14049.291016 12809.275391 11484.662109 14078.063477 12356.505859
          13718.723633 13266.913086 14104.291992 11912.662109 14127.421875 13721.077148
          12798.202148 13257.949219 14146.572266 12346.286133 11483.37207 13718.723633
          14160.857422 14398.544922 11906.634766 14408.43457 14437.922852 13246.041992
          12785.742188 14475.233398 13711.769531 14169.583008 14511.491211 12335.834961
          14544.505859 14172.626953 13231.72168 14573.557617 11904.666992 13700.375977
          12772.152344 14597.550781 12327.490234 14169.583008 14615.388672 13215.557617
          14805.677734 14818.004883 13685.194336 14854.832031 12758.203125 14901.550781
          14160.857422 14626.416016 14946.975586 14988.293945 12324.724609 13666.908203
          14630.260742 13197.87793 15024.617188 14146.572266 12747.082031 15054.611328
          14626.416016 13646.220703 14127.421875 15076.982422 13179.695313 15209.179688
          15224.466797 15270.235352 14615.388672 15328.450195 15090.946289 15385.083984
          12743.367188 14104.291992 13623.553711 15436.576172 15095.651367 14597.550781
          13165.224609 15481.874023 15519.371094 15090.946289 14078.063477 13600.220703
          14573.557617 15547.50293 15608.427734 15627.304688 15683.960938 13160.373047
          15076.982422 15756.203125 15564.96875 15826.549805 14049.291016 14544.505859
          15890.55957 13581.689453 15054.611328 15570.668945 15946.955078 15993.730469
          14511.491211 15564.96875 14019.670898 15024.617188 16028.864258 13575.466797
          16002.709961 15547.50293 16025.9375 16095.835938 16050.350586 16185.18457
          14475.233398 14988.293945 16272.349609 13996.201172 16351.800781 15519.371094
          16057.433594 16421.837891 14946.975586 14437.922852 16050.350586 16479.855469
          15481.874023 13988.321289 16523.21875 16028.864258 16391.210938 14901.550781
          16419.710938 16505.6875 16549.595703 15436.576172 14408.43457 16615.873047
          16723.648438 15993.730469 16558.708984 16822.068359 16908.751953 14854.832031
          15385.083984 14398.544922 16549.595703 15946.955078 16980.369141 17033.664063
          16523.21875 15328.450195 14818.004883 15890.55957 16773.003906 16807.875
          17066.603516 16913.304688 17048.757813 17181.615234 16479.855469 17078.390625
          17303.136719 15270.235352 15826.549805 14805.677734 17410.228516 17066.603516
          16421.837891 17498.789063 17564.892578 15756.203125 15224.466797 17033.664063
          16351.800781 17147.019531 17189.556641 17606.666016 17318.390625 17484.236328
          16980.369141 17647.339844 15683.960938 17621.517578 15209.179688 17796.982422
          16272.349609 17929.587891 16908.751953 17606.666016 18039.921875 15627.304688
          16185.18457 18122.890625 17564.892578 16822.068359 18175.458984 17512.015625
          17563.738281 17720.560547 17922.683594 17498.789063 16095.835938 15608.427734
          18122.228516 16723.648438 18193.699219 18306.5625 18471.494141 17410.228516
          18175.458984 18609.671875 16025.9375 16615.873047 18122.890625 18713.851563
          17303.136719 18778.476563 17866.556641 17929.259766 16505.6875 18119.378906
          18039.921875 16002.709961 18364.660156 17181.615234 18608.472656 18800.888672
          18836.146484 17929.587891 19041.542969 18778.476563 16419.710938 17048.757813
          19214.308594 17796.982422 18713.851563 19344.054688 16391.210938 19422.744141
          16913.304688 18208.941406 18609.671875 18284.742188 18514.21875 17647.339844
          18810.667969 19450.769531 19108.335938 19389.591797 18471.494141 16807.875
          19644.632813 19422.744141 17484.236328 19860.429688 18306.5625 19344.054688
          20022.251953 16773.003906 17318.390625 20120.408203 19214.308594 18537.025391
          18122.228516 18628.324219 18903.642578 19259.734375 20155.523438 19621.597656
          19041.542969 19967.771484 17189.556641 20120.408203 17922.683594 20284.779297
          20556.800781 18836.146484 20022.251953 17147.019531 20762.873047 17720.560547
          20890.271484 19860.429688 18608.472656 18847.894531 18957.150391 19284.263672
          19707.445313 20933.292969 20144.082031 17563.738281 19644.632813 20570.103516
          18364.660156 20890.271484 20968.441406 19389.591797 21316.482422 20762.873047
          17512.015625 18119.378906 21585.732422 20556.800781 19108.335938 21753.394531
          19137.400391 19266.826172 19649.802734 21805.882813 20145.972656 17929.259766
          20671.119141 20284.779297 18810.667969 21200.255859 21753.394531 21708.146484
          19967.771484 17866.556641 22158.429688 21585.732422 18514.21875 22514.287109
          19621.597656 21316.482422 22730.724609 19399.667969 19551.085938 18284.742188
          19990.945313 22797.003906 20565.796875 20968.441406 21199.292969 19259.734375
          21864.308594 22730.724609 22519.541016 18208.941406 20570.103516 23106.570313
          18903.642578 22514.287109 23576.1875 20144.082031 22158.429688 23845.867188
          18628.324219 19626.361328 19801.894531 20294.246094 23921.820313 21708.146484
          20949.267578 19707.445313 21708.667969 22547.242188 23845.867188 18537.025391
          23400.714844 21200.255859 19284.263672 24176.890625 23576.1875 24802.167969
          20671.119141 23106.570313 25152.746094 18957.150391 19803.234375 20008.160156
          25257.744141 22519.541016 20526.121094 20145.972656 21246.361328 22145.316406
          25152.746094 18847.894531 23229.404297 21864.308594 24406.369141 19649.802734
          24802.167969 25432.660156 26205.40625 21199.292969 24176.890625 19266.826172
          26650.568359 20565.796875 19903.859375 23400.714844 20116.375 26795.341797
          20632.955078 21403.363281 22439.228516 19137.400391 26650.568359 23807.626953
          22547.242188 19990.945313 25539.605469 26205.40625 26901.699219 21708.667969
          27748.097656 25432.660156 19551.085938 28249.34375 20949.267578 24406.369141
          28400.333984 19399.667969 28249.34375 23229.404297 20294.246094 27748.097656
          22145.316406 19801.894531 26901.699219 21246.361328 25539.605469 19626.361328
          20526.121094 23807.626953 22439.228516 20008.160156 21403.363281 19803.234375
          20632.955078 20116.375 19903.859375
        </DataArray>
        <DataArray type="Float32" Name="VELOCITY" NumberOfComponents="3" ComponentName0="X-VELOCITY" ComponentName1="Y-VELOCITY" ComponentName2="Z-VELOCITY" format="ascii" RangeMin="0" RangeMax="84.225593567">
          0 0 0 0 0 0
          11.292409897 0.063480265439 0 11.482457161 0.079778939486 0
          22.158939362 0.10548277199 0 0 0 0
          11.401782036 0.097884126008 0 22.134771347 0.10966481268 0
          22.167472839 0.11178848147 0 34.516757965 0.080075308681 0
          0 0 0 11.271976471 0.10460942984 0
          34.494571686 0.075455479324 0 34.47177887 0.073487564921 0
          22.223455429 0.11158503592 0 43.658466339 0.085980415344 0
          0 0 0 11.132591248 0.10614058375 0
          43.657173157 0.079784907401 0 34.44764328 0.073070056736 0
          22.288290024 0.1099319458 0 43.664421082 0.076745741069 0
          34.42244339 0.072522424161 0 52.035778046 0.071688979864 0
          0 0 0 43.677669525 0.074784524739 0
          52.042827606 0.06754527241 0 10.99255085 0.10457034409 0
          22.355056763 0.10680230707 0 52.048522949 0.064206793904 0
          43.694072723 0.072947442532 0 34.396888733 0.071204833686 0
          52.053375244 0.061832107604 0 0 0 0
          57.787353516 0.06051337719 0 57.80083847 0.057454496622 0
          10.855530739 0.10091562569 0 57.81533432 0.055006802082 0
          22.420070648 0.10238840431 0 52.057697296 0.059879034758 0
          43.711788177 0.070729099214 0 34.371658325 0.069017112255 0
          57.830318451 0.052951999009 0 0 0 0
          59.368404388 0.042837239802 0 52.061637878 0.057916563004 0
          10.723787308 0.095883026719 0 59.384555817 0.040458012372 0
          57.845489502 0.051116969436 0 43.72964859 0.067990168929 0
          22.481405258 0.097015351057 0 59.40071106 0.03831499815 0
          34.347267151 0.06608466804 0 59.416503906 0.03654583171 0
          57.860603333 0.049279805273 0 52.06526947 0.055734787136 0
          63.131858826 0.026268893853 0 0 0 0
          59.431884766 0.03502972424 0 10.598784447 0.089999221265 0
          63.145477295 0.025172602385 0 43.746944427 0.064768120646 0
          22.538133621 0.091011457145 0 63.158489227 0.023808768019 0
          57.875427246 0.04730803892 0 63.170837402 0.022619225085 0
          34.324054718 0.062600061297 0 52.068618774 0.053272087127 0
          59.44683075 0.033609334379 0 63.182666779 0.021582979709 0
          43.763244629 0.061171386391 0 75.167160034 0.012907396071 0
          0 0 0 10.48141861 0.083650700748 0
          75.179855347 0.01252189558 0 59.461273193 0.032176781446 0
          22.589899063 0.084656268358 0 57.889762878 0.045154202729 0
          75.191833496 0.011908773333 0 63.194042206 0.020627202466 0
          52.071697235 0.050549898297 0 34.302238464 0.058756045997 0
          75.203086853 0.011339988559 0 43.778324127 0.057328335941 0
          75.21370697 0.010831517167 0 59.475143433 0.03068245016 0
          83.771209717 1.1365159437e-014 0 63.204971313 0.019695835188 0
          0 0 0 57.903442383 0.042828079313 0
          10.372178078 0.077117197216 0 83.784744263 6.3425345976e-014 0
          22.636663437 0.078172951937 0 83.797660828 1.1171828572e-013 0
          52.074504852 0.047631137073 0 75.223770142 0.010361788794 0
          34.281925201 0.054722528905 0 83.809959412 1.530442575e-013 0
          63.215419769 0.018759535626 0 59.488361359 0.029116293415 0
          83.82169342 1.872594961e-013 0 43.792076111 0.05336401239 0
          57.916355133 0.040369864553 0 75.233314514 0.0099109690636 0
          0 0 0 75.167160034 -0.012907396071 0
          10.27126503 0.070600219071 0 75.179855347 -0.01252189558 0
          22.678575516 0.07173564285 0 52.077049255 0.044594209641 0
          75.191833496 -0.011908773333 0 83.83291626 1.976420465e-013 0
          63.225353241 0.017801456153 0 75.203086853 -0.011339988559 0
          59.500873566 0.027484545484 0 34.26317215 0.050641827285 0
          75.242370605 0.0094633959234 0 83.843635559 1.8889822703e-013 0
          57.928421021 0.037829220295 0 75.21370697 -0.010831517167 0
          43.804485321 0.0493905209 0 63.131858826 -0.026268893853 0
          0 0 0 63.145477295 -0.025172602385 0
          63.234741211 0.016805160791 0 10.17866993 0.064244925976 0
          75.250953674 0.0090014161542 0 52.079341888 0.041517715901 0
          75.223770142 -0.010361788794 0 63.158489227 -0.023808768019 0
          22.715885162 0.065479561687 0 59.512641907 0.025797242299 0
          83.853881836 1.6619098133e-013 0 63.170837402 -0.022619225085 0
          34.245967865 0.046630833298 0 57.939613342 0.035255737603 0
          75.233314514 -0.0099109690636 0 63.182666779 -0.021582979709 0
          43.81558609 0.045504260808 0 75.259048462 0.0085080647841 0
          63.243583679 0.015762289986 0 83.863632202 1.3620598789e-013 0
          59.368404388 -0.042837239802 0 0 0 0
          63.194042206 -0.020627202466 0 52.08140564 0.038474421948 0
          59.523670197 0.024075176567 0 59.384555817 -0.040458012372 0
          10.09423542 0.058155991137 0 75.242370605 -0.0094633959234 0
          22.748901367 0.059509906918 0 59.40071106 -0.03831499815 0
          59.416503906 -0.03654583171 0 34.230285645 0.042785257101 0
          63.204971313 -0.019695835188 0 57.949947357 0.032702218741 0
          83.87286377 1.0630869286e-013 0 75.266639709 0.00798320584 0
          63.251857758 0.014695614576 0 43.825450897 0.041786942631 0
          75.250953674 -0.0090014161542 0 59.431884766 -0.03502972424 0
          59.533950806 0.02236587368 0 63.215419769 -0.018759535626 0
          52.083267212 0.03553198278 0 59.44683075 -0.033609334379 0
          57.787353516 -0.06051337719 0 0 0 0
          10.017696381 0.052408676594 0 57.80083847 -0.057454496622 0
          83.881538391 6.8425117189e-014 0 57.81533432 -0.055006802082 0
          22.777954102 0.053908888251 0 75.259048462 -0.0085080647841 0
          75.273719788 0.0074571925215 0 57.830318451 -0.052951999009 0
          59.461273193 -0.032176781446 0 34.216068268 0.039183989167 0
          57.959434509 0.030231682584 0 63.225353241 -0.017801456153 0
          63.259544373 0.013667295687 0 57.845489502 -0.051116969436 0
          43.83417511 0.038308173418 0 59.543460846 0.020741637796 0
          59.475143433 -0.03068245016 0 75.266639709 -0.00798320584 0
          52.084949493 0.032755192369 0 57.860603333 -0.049279805273 0
          83.889640808 3.3749407755e-014 0 63.234741211 -0.016805160791 0
          52.035778046 -0.071688979864 0 0 0 0
          75.280273438 0.0069770263508 0 9.9487085342 0.047056488693 0
          52.042827606 -0.06754527241 0 22.803388596 0.048741001636 0
          52.048522949 -0.064206793904 0 57.875427246 -0.04730803892 0
          57.968086243 0.027913007885 0 59.488361359 -0.029116293415 0
          63.266620636 0.012743270025 0 52.053375244 -0.061832107604 0
          34.203250885 0.035892885178 0 52.057697296 -0.059879034758 0
          43.84185791 0.035127818584 0 75.273719788 -0.0074571925215 0
          63.243583679 -0.015762289986 0 83.897224426 -1.6177838013e-014 0
          59.552188873 0.0192633681 0 57.889762878 -0.045154202729 0
          59.500873566 -0.027484545484 0 52.086475372 0.030204199255 0
          52.061637878 -0.057916563004 0 75.286361694 0.0065621417016 0
          43.658466339 -0.085980415344 0 0 0 0
          43.657173157 -0.079784907401 0 9.8868780136 0.042136576027 0
          43.664421082 -0.076745741069 0 57.903442383 -0.042828079313 0
          63.27312851 0.011929489672 0 22.825544357 0.044057115912 0
          57.975933075 0.025800390169 0 52.06526947 -0.055734787136 0
          63.251857758 -0.014695614576 0 43.677669525 -0.074784524739 0
          34.191753387 0.032967891544 0 75.280273438 -0.0069770263508 0
          59.512641907 -0.025797242299 0 83.90435791 -6.2353415617e-014 0
          43.84860611 0.032297633588 0 43.694072723 -0.072947442532 0
          59.56016922 0.017934547737 0 52.068618774 -0.053272087127 0
          57.916355133 -0.040369864553 0 75.292053223 0.0061700162478 0
          52.087863922 0.027928782627 0 43.711788177 -0.070729099214 0
          63.259544373 -0.013667295687 0 63.279167175 0.011149684899 0
          0 0 0 52.071697235 -0.050549898297 0
          34.516757965 -0.080075308681 0 75.286361694 -0.0065621417016 0
          59.523670197 -0.024075176567 0 34.494571686 -0.075455479324 0
          9.8317775726 0.037673596293 0 43.72964859 -0.067990168929 0
          57.983028412 0.023913752288 0 34.47177887 -0.073487564921 0
          22.844751358 0.039897803217 0 57.928421021 -0.037829220295 0
          83.911064148 -1.0156660262e-013 0 34.181503296 0.030458075926 0
          34.44764328 -0.073070056736 0 43.746944427 -0.064768120646 0
          34.42244339 -0.072522424161 0 43.85452652 0.029863128439 0
          59.567531586 0.016702592373 0 52.074504852 -0.047631137073 0
          75.297401428 0.0057280170731 0 59.533950806 -0.02236587368 0
          63.266620636 -0.012743270025 0 34.396888733 -0.071204833686 0
          52.089149475 0.02596523799 0 57.939613342 -0.035255737603 0
          75.292053223 -0.0061700162478 0 63.284854889 0.010326010175 0
          43.763244629 -0.061171386391 0 0 0 0
          22.158939362 -0.10548277199 0 34.371658325 -0.069017112255 0
          9.7829637527 0.033682662994 0 57.989501953 0.022247452289 0
          52.077049255 -0.044594209641 0 22.134771347 -0.10966481268 0
          83.917266846 -1.4518490305e-013 0 22.167472839 -0.11178848147 0
          22.861330032 0.036296270788 0 34.172428131 0.028408860788 0
          22.223455429 -0.11158503592 0 43.778324127 -0.057328335941 0
          75.302383423 0.0052334177308 0 59.543460846 -0.020741637796 0
          59.574420929 0.015537836589 0 34.347267151 -0.06608466804 0
          63.27312851 -0.011929489672 0 22.288290024 -0.1099319458 0
          57.949947357 -0.032702218741 0 43.859729767 0.027866538614 0
          75.297401428 -0.0057280170731 0 52.079341888 -0.041517715901 0
          52.090393066 0.024341762066 0 22.355056763 -0.10680230707 0
          63.290225983 0.0095200585201 0 34.324054718 -0.062600061297 0
          43.792076111 -0.05336401239 0 83.922904968 -1.5439953732e-013 0
          22.420070648 -0.10238840431 0 57.995491028 0.020812900737 0
          11.292409897 -0.063480265439 0 0 0 0
          11.482457161 -0.079778939486 0 9.7399930954 0.030171539634 0
          59.552188873 -0.0192633681 0 22.875585556 0.03328088671 0
          11.401782036 -0.097884126008 0 57.959434509 -0.030231682584 0
          52.08140564 -0.038474421948 0 63.279167175 -0.011149684899 0
          34.302238464 -0.058756045997 0 11.271976471 -0.10460942984 0
          34.164451599 0.026865074411 0 75.306930542 0.0048250309192 0
          22.481405258 -0.097015351057 0 59.5809021 0.01453209389 0
          75.302383423 -0.0052334177308 0 11.132591248 -0.10614058375 0
          43.804485321 -0.0493905209 0 43.864330292 0.026349211112 0
          52.091674805 0.023089887574 0 10.99255085 -0.10457034409 0
          63.295185089 0.0089730909094 0 22.538133621 -0.091011457145 0
          34.281925201 -0.054722528905 0 83.92804718 -1.2086063758e-013 0
          57.968086243 -0.027913007885 0 59.56016922 -0.017934547737 0
          52.083267212 -0.03553198278 0 58.001087189 0.01968033053 0
          10.855530739 -0.10091562569 0 63.284854889 -0.010326010175 0
          0 0 0 43.81558609 -0.045504260808 0
          0 0 0 0 0 0
          9.7024316788 0.027142211795 0 0 0 0
          22.887804031 0.030877107754 0 22.589899063 -0.084656268358 0
          75.311088562 0.0046986797825 0 0 0 0
          34.157516479 0.025872409344 0 10.723787308 -0.095883026719 0
          75.306930542 -0.0048250309192 0 59.586883545 0.013892125338 0
          34.26317215 -0.050641827285 0 0 0 0
          43.868442535 0.025351185352 0 57.975933075 -0.025800390169 0
          52.084949493 -0.032755192369 0 22.636663437 -0.078172951937 0
          83.933006287 -8.0974398194e-014 0 10.598784447 -0.089999221265 0
          52.093048096 0.022254087031 0 63.29964447 0.0089116096497 0
          43.825450897 -0.041786942631 0 59.567531586 -0.016702592373 0
          0 0 0 63.290225983 -0.0095200585201 0
          34.245967865 -0.046630833298 0 0 0 0
          58.006263733 0.018968082964 0 0 0 0
          9.6698675156 0.024591913447 0 10.48141861 -0.083650700748 0
          75.315109253 0.0048723290674 0 22.898262024 0.029108773917 0
          22.678575516 -0.07173564285 0 75.311088562 -0.0046986797825 0
          59.592235565 0.013764376752 0 0 0 0
          52.086475372 -0.030204199255 0 34.151565552 0.02547705546 0
          57.983028412 -0.023913752288 0 43.83417511 -0.038308173418 0
          43.872196198 0.024911085144 0 59.574420929 -0.015537836589 0
          34.230285645 -0.042785257101 0 83.938102722 -2.87631518e-014 0
          10.372178078 -0.077117197216 0 0 0 0
          63.303760529 0.0092265484855 0 52.094532013 0.021895153448 0
          22.715885162 -0.065479561687 0 63.295185089 -0.0089730909094 0
          58.01096344 0.018763789907 0 75.319320679 0.0050354148261 0
          0 0 0 52.087863922 -0.027928782627 0
          43.84185791 -0.035127818584 0 75.315109253 -0.0048723290674 0
          10.27126503 -0.070600219071 0 0 0 0
          9.6419219971 0.022513866425 0 34.216068268 -0.039183989167 0
          57.989501953 -0.022247452289 0 22.907215118 0.027999185026 0
          59.597076416 0.014016802423 0 59.5809021 -0.01453209389 0
          34.146556854 0.025726143271 0 22.748901367 -0.059509906918 0
          43.875701904 0.025074312463 0 83.943328857 2.4437628977e-014 0
          0 0 0 10.17866993 -0.064244925976 0
          63.307998657 0.0094018355012 0 63.29964447 -0.0089116096497 0
          52.096111298 0.022083796561 0 43.84860611 -0.032297633588 0
          34.203250885 -0.035892885178 0 52.089149475 -0.02596523799 0
          58.015281677 0.019029883668 0 57.995491028 -0.020812900737 0
          22.777954102 -0.053908888251 0 75.319320679 -0.0050354148261 0
          0 0 0 75.323829651 0.0047746705823 0
          0 0 0 10.09423542 -0.058155991137 0
          59.586883545 -0.013892125338 0 9.6182584763 0.02089782618 0