<?xml version="1.0"?>
<VTKFile type="PolyData" version="0.1" byte_order="LittleEndian" compressor="vtkZLibDataCompressor">
  <PolyData>
    <Piece NumberOfPoints="1071" NumberOfVerts="0" NumberOfLines="0" NumberOfStrips="0" NumberOfPolys="2000">
      <PointData>
        <DataArray type="Float32" Name="PRESSURE" format="ascii" RangeMin="-2166.6777344" RangeMax="0">
          0 -45.766651154 0 -45.061088562 0 -91.64881897
          -91.084335327 -44.199745178 -90.805389404 0 -138.34094238 -138.07618713
          -45.001094818 -91.816230774 -138.27326965 0 -185.71339417 -185.66934204
          -46.032821655 -139.32427979 -186.12356567 -92.974655151 -187.13668823 0
          -233.55078125 -140.40634155 -46.695819855 -233.6312561 -234.19329834 -93.790473938
          -188.11018372 -235.13110352 -141.20553589 -281.69863892 0 -47.065162659
          -281.83761597 -94.309570313 -282.418396 -188.84977722 -235.99679565 -283.26217651
          -141.75801086 -330.05511475 0 -236.66716003 -330.21343994 -47.273162842
          -189.38745117 -284.02468872 -330.76312256 -94.636169434 -331.50436401 -142.13275146
          -237.16992188 -284.62380981 0 -378.55255127 -189.76968384 -378.70828247
          -47.389858246 -332.16818237 -379.20077515 -94.833610535 -285.08233643 -142.3724823
          -379.83764648 -332.69619751 -237.53785706 -190.02346802 -380.40740967 0
          -427.14556885 -427.28686523 -47.454078674 -285.42416382 -427.70993042 -333.105896
          -94.945396423 -237.78799438 -380.8656311 -428.24478149 -142.51139832 -428.72561646
          -190.17248535 -333.4151001 0 -285.66015625 -475.80429077 -381.22457886
          -475.92492676 -47.47851944 -476.27398682 -94.985694885 -429.11618042 -237.93580627
          -476.71130371 -142.55999756 -333.63082886 -381.49758911 -190.22366333 -477.10845947
          -429.4239502 -285.80001831 -524.50976563 0 -524.60662842 -47.454078674
          -524.88079834 -477.43399048 -94.945396423 -237.98588562 -381.68948364 -142.51139832
          -429.65905762 -525.2255249 -333.7588501 -285.84689331 -477.69100952 -190.17248535
          -525.54382324 0 -573.25097656 -47.389858246 -429.82498169 -573.32250977
          -381.80343628 -525.80682373 -237.93580627 -94.833610535 -573.5222168 -477.88739014
          -333.80142212 -142.3724823 -573.77844238 -526.01379395 -285.80001831 -190.02346802
          -574.02154541 -429.9236145 -478.0262146 -381.84115601 0 -622.02294922
          -237.78799438 -574.22393799 -526.17108154 -47.273162842 -622.06817627 -333.7588501
          -622.19329834 -94.636169434 -142.13275146 -622.36334229 -285.66015625 -574.38116455
          -429.95623779 -478.10882568 -526.28210449 -622.5333252 -381.80343628 -189.76968384
          -574.4989624 -333.63082886 -622.67572021 -237.53785706 0 -670.82519531
          -670.84289551 -47.065162659 -478.13619995 -94.309570313 -670.89208984 -429.9236145
          -526.34838867 -141.75801086 -285.42416382 -670.97546387 -622.78271484 -381.68948364
          -574.581604 -189.38745117 -671.07189941 -622.85986328 -333.4151001 -478.10882568
          -671.15338135 -237.16992188 -526.37030029 -429.82498169 0 -719.66064453
          -574.63110352 -719.64929199 -46.695819855 -719.61859131 -93.790473938 -285.08233643
          -671.20825195 -381.49758911 -622.9130249 -141.20553589 -719.61157227 -188.84977722
          -719.63128662 -526.34838867 -478.0262146 -574.6472168 -671.24249268 -333.105896
          -429.65905762 -719.6484375 -236.66716003 -622.94476318 0 -768.53515625
          -46.032821655 -768.49230957 -92.974655151 -381.22457886 -671.26397705 -768.37493896
          -719.64752197 -284.62380981 -526.28210449 -140.40634155 -768.26971436 -574.63110352
          -477.88739014 -622.95495605 -768.20587158 -188.11018372 -719.6350708 -332.69619751
          -429.4239502 -671.27636719 -768.15264893 -235.99679565 -574.581604 -719.62145996
          -817.45709229 -380.8656311 0 -622.94476318 -526.17108154 -45.001094818
          -817.37921143 -284.02468872 -768.08996582 -91.816230774 -817.16467285 -477.69100952
          -671.28033447 -816.94885254 -139.32427979 -332.16818237 -187.13668823 -816.79046631
          -768.02545166 -429.11618042 -719.61230469 -574.4989624 -622.9130249 -235.13110352
          -816.65740967 -526.01379395 -671.27636719 -767.97235107 -380.40740967 -866.43725586
          0 -283.26217651 -866.31939697 -816.52441406 -477.43399048 -44.199745178
          -719.60968018 -90.805389404 -865.99298096 -865.64831543 -138.27326965 -428.72561646
          -767.93939209 -622.85986328 -816.4005127 -331.50436401 -671.26397705 -186.12356567
          -574.38116455 -865.37957764 -719.61230469 -525.80682373 -865.15332031 -234.19329834
          -816.30267334 -379.83764648 -477.10845947 -767.92901611 -282.418396 -864.93829346
          0 -915.48846436 -45.061088562 -915.32421875 -671.24249268 -914.86608887
          -91.084335327 -622.78271484 -574.22393799 -719.62145996 -428.24478149 -138.07618713
          -914.36798096 -816.2432251 -330.76312256 -864.74505615 -767.93939209 -185.66934204
          -525.54382324 -913.96704102 -913.62945557 -233.6312561 -864.59588623 -379.20077515
          -476.71130371 -816.22344971 -671.20825195 -719.6350708 -622.67572021 -913.31652832
          -281.83761597 -767.97235107 -964.62573242 -574.02154541 0 -45.766651154
          -964.40698242 -91.64881897 -963.7913208 -427.70993042 -864.50561523 -138.34094238
          -963.10742188 -330.21343994 -816.2432251 -913.04058838 -525.2255249 -185.71339417
          -962.54547119 -719.64752197 -671.15338135 -476.27398682 -864.47424316 -378.70828247
          -962.07269287 -912.83026123 -622.5333252 -768.02545166 -233.55078125 -816.30267334
          -573.77844238 -281.69863892 -961.64080811 -1013.8664551 -1013.5827026 -427.28686523
          -912.70172119 -1012.7770386 -524.88079834 -864.50561523 -961.26416016 -330.05511475
          -719.6484375 -1011.8656616 -768.08996582 -671.07189941 -1011.1054077 -816.4005127
          -622.36334229 -912.65692139 -475.92492676 -378.55255127 -960.97772217 -1010.4664917
          -573.5222168 -864.59588623 -1009.888855 -960.80047607 -427.14556885 -768.15264893
          -719.63128662 -912.70172119 -524.60662842 -1063.2299805 -1062.8685303 -670.97546387
          -816.52441406 -1061.8321533 -1009.3882446 -864.74505615 -1060.640625 -622.19329834
          -1059.6347656 -960.74066162 -475.80429077 -573.32250977 -1009.0061646 -912.83026123
          -1058.7905273 -768.20587158 -719.61157227 -816.65740967 -1058.0336914 -864.93829346
          -670.89208984 -960.80047607 -524.50976563 -1008.7689209 -1112.737793 -622.06817627
          -913.04058838 -1112.282959 -1110.9660645 -1057.3811035 -1109.428833 -1008.6915894
          -573.25097656 -960.97772217 -1108.1177979 -816.79046631 -768.26971436 -1056.8818359
          -719.61859131 -865.15332031 -1107.0194092 -913.31652832 -670.84289551 -1008.7689209
          -1106.0427246 -1056.574707 -622.02294922 -961.26416016 -1162.4130859 -1161.8463135
          -1105.2052002 -816.94885254 -1160.1881104 -865.37957764 -768.37493896 -1056.4744873
          -1158.2242432 -1009.0061646 -913.62945557 -719.64929199 -1156.5341797 -1104.5675049
          -961.64080811 -670.82519531 -1155.1213379 -1056.574707 -1009.3882446 -1104.1802979
          -1153.875 -817.16467285 -865.64831543 -913.96704102 -768.49230957 -1152.8131104
          -1212.2806396 -719.66064453 -962.07269287 -1211.579834 -1056.8818359 -1104.048584
          -1209.5070801 -1207.0172119 -1009.888855 -1152.0128174 -1204.8571777 -865.99298096
          -1104.1802979 -1203.0560303 -914.36798096 -817.37921143 -1057.3811035 -962.54547119
          -768.53515625 -1151.52771 -1201.4785156 -1010.4664917 -1104.5675049 -1200.1425781
          -1262.3656006 -1151.3555908 -1261.5047607 -1058.0336914 -1258.9298096 -1255.793457
          -914.86608887 -866.31939697 -1199.1428223 -963.10742188 -817.45709229 -1253.0517578
          -1011.1054077 -1151.52771 -1105.2052002 -1250.7724609 -1198.5281982 -1058.7905273
          -1248.7880859 -1152.0128174 -915.32421875 -963.7913208 -866.43725586 -1247.1136475
          -1198.3100586 -1106.0427246 -1312.6928711 -1011.8656616 -1311.6416016 -1308.4606934
          -1304.5322266 -1245.8571777 -1059.6347656 -1301.0738525 -1152.8131104 -1198.5281982
          -1298.2070313 -1107.0194092 -1245.0717773 -964.40698242 -915.48846436 -1012.7770386
          -1295.7237549 -1199.1428223 -1153.875 -1060.640625 -1244.8056641 -1293.6304932
          -1363.2849121 -1362.0084229 -1108.1177979 -1358.0996094 -1292.0457764 -1353.2044678
          -1200.1425781 -1245.0717773 -1348.8662109 -964.62573242 -1155.1213379 -1013.5827026
          -1061.8321533 -1345.2794189 -1291.0554199 -1109.428833 -1245.8571777 -1342.1878662
          -1201.4785156 -1290.7347412 -1156.5341797 -1339.5849609 -1013.8664551 -1414.15979
          -1412.6185303 -1247.1136475 -1407.8393555 -1062.8685303 -1337.6066895 -1203.0560303
          -1291.0554199 -1401.7696533 -1110.9660645 -1396.3543701 -1158.2242432 -1336.3945313
          -1391.8876953 -1248.7880859 -1292.0457764 -1388.0614014 -1204.8571777 -1335.9963379
          -1063.2299805 -1112.282959 -1384.8530273 -1293.6304932 -1465.3273926 -1160.1881104
          -1250.7724609 -1463.4765625 -1457.6625977 -1336.3945313 -1382.435791 -1450.1713867
          -1207.0172119 -1443.4414063 -1380.9821777 -1295.7237549 -1437.9060059 -1337.6066895
          -1112.737793 -1253.0517578 -1433.1986084 -1161.8463135 -1380.4680176 -1429.2808838
          -1209.5070801 -1339.5849609 -1298.2070313 -1516.7851563 -1380.9821777 -1514.5754395
          -1426.3734131 -1507.5380859 -1255.793457 -1498.3343506 -1162.4130859 -1490.0083008
          -1342.1878662 -1424.6102295 -1301.0738525 -1382.435791 -1483.1851807 -1211.579834
          -1477.425415 -1423.9508057 -1258.9298096 -1345.2794189 -1472.6635742 -1384.8530273
          -1304.5322266 -1424.6102295 -1568.5123291 -1469.1485596 -1565.8898926 -1212.2806396
          -1557.4163818 -1546.1618652 -1388.0614014 -1261.5047607 -1535.9147949 -1348.8662109
          -1466.9453125 -1426.3734131 -1527.5522461 -1308.4606934 -1520.5314941 -1466.1480713
          -1391.8876953 -1429.2808838 -1514.7330322 -1353.2044678 -1262.3656006 -1466.9453125
          -1510.4002686 -1620.4619141 -1311.6416016 -1617.369873 -1607.2237549 -1433.1986084
          -1396.3543701 -1593.5317383 -1469.1485596 -1507.6307373 -1580.989624 -1358.0996094
          -1570.7896729 -1506.7271729 -1437.9060059 -1562.2523193 -1312.6928711 -1472.6635742
          -1401.7696533 -1555.1745605 -1362.0084229 -1507.6307373 -1549.8012695 -1443.4414063
          -1672.550293 -1668.9296875 -1477.425415 -1656.8508301 -1407.8393555 -1640.2800293
          -1510.4002686 -1546.4407959 -1625.0018311 -1612.6013184 -1363.2849121 -1483.1851807
          -1545.4124756 -1450.1713867 -1602.2530518 -1514.7330322 -1412.6185303 -1593.668335
          -1546.4407959 -1490.0083008 -1520.5314941 -1587.1585693 -1457.6625977 -1724.6445313
          -1720.4349365 -1706.1386719 -1549.8012695 -1686.1818848 -1583.2611084 -1667.6375732
          -1414.15979 -1527.5522461 -1498.3343506 -1652.6065674 -1581.9720459 -1555.1745605
          -1463.4765625 -1640.1474609 -1629.9035645 -1583.2611084 -1535.9147949 -1507.5380859
          -1562.2523193 -1622.2955322 -1776.546875 -1771.6882324 -1754.8682861 -1465.3273926
          -1587.1585693 -1730.9458008 -1617.7862549 -1708.5264893 -1546.1618652 -1570.7896729
          -1690.4074707 -1514.5754395 -1593.668335 -1616.0371094 -1675.5511475 -1663.5006104
          -1580.989624 -1617.7862549 -1557.4163818 -1602.2530518 -1654.7109375 -1516.7851563
          -1827.9794922 -1622.2955322 -1822.416626 -1802.7567139 -1649.2106934 -1774.2375488
          -1593.5317383 -1612.6013184 -1747.3092041 -1565.8898926 -1725.6646729 -1629.9035645
          -1646.9277344 -1708.0716553 -1625.0018311 -1607.2237549 -1649.2106934 -1693.854248
          -1640.1474609 -1568.5123291 -1683.3865967 -1654.7109375 -1878.5653076 -1640.2800293
          -1872.2553711 -1849.4460449 -1676.4207764 -1652.6065674 -1617.369873 -1815.6883545
          -1783.6314697 -1663.5006104 -1673.7784424 -1757.9981689 -1737.1385498 -1656.8508301
          -1667.6375732 -1620.4619141 -1676.4207764 -1675.5511475 -1720.0793457 -1707.1806641
          -1683.3865967 -1686.1818848 -1668.9296875 -1690.4074707 -1927.8037109 -1920.7169189
          -1698.708252 -1894.4609375 -1854.8149414 -1816.947876 -1693.854248 -1695.9522705
          -1786.668457 -1706.1386719 -1708.5264893 -1672.550293 -1761.8242188 -1698.708252
          -1708.0716553 -1741.2666016 -1725.5860596 -1730.9458008 -1720.4349365 -1707.1806641
          -1725.6646729 -1975.0419922 -1967.1507568 -1716.1280518 -1937.1395264 -1890.8729248
          -1720.0793457 -1846.2918701 -1754.8682861 -1713.2075195 -1724.6445313 -1810.453125
          -1747.3092041 -1781.0721436 -1737.1385498 -1716.1280518 -1756.9241943 -1771.6882324
          -1774.2375488 -1738.8280029 -1725.5860596 -1757.9981689 -1728.6060791 -2019.4573975
          -2010.7224121 -1976.6077881 -1922.8526611 -1741.2666016 -1802.7567139 -1776.546875
          -1870.4857178 -1783.6314697 -1725.0943604 -1828.2926025 -1794.3656006 -1761.8242188
          -1728.6060791 -1766.9620361 -1822.416626 -1815.6883545 -1738.8280029 -1746.6588135
          -1786.668457 -1734.4194336 -2060.0722656 -2050.4470215 -1849.4460449 -2011.8726807
          -1756.9241943 -1827.9794922 -1949.8112793 -1816.947876 -1888.9263916 -1729.9068604
          -1840.2270508 -1781.0721436 -1801.7911377 -1734.4194336 -1872.2553711 -1854.8149414
          -1770.8117676 -1810.453125 -1746.6588135 -1747.0930176 -1878.5653076 -1730.3217773
          -1894.4609375 -2095.7958984 -1766.9620361 -2085.2512207 -2041.9597168 -1846.2918701
          -1971.2224121 -1724.659668 -1901.8746338 -1846.6945801 -1794.3656006 -1920.7169189
          -1802.5126953 -1730.3217773 -1890.8729248 -1766.4597168 -1828.2926025 -1747.0930176
          -1737.2130127 -1927.8037109 -1937.1395264 -1714.3626709 -1770.8117676 -2125.4663086
          -1870.4857178 -2113.9694824 -2065.8103027 -1986.486084 -1706.9755859 -1908.7143555
          -1801.7911377 -1845.5944824 -1967.1507568 -1714.3626709 -1922.8526611 -1793.0297852
          -1750.6254883 -1840.2270508 -1737.2130127 -1975.0419922 -1715.7089844 -1976.6077881
          -1688.4075928 -1766.4597168 -1888.9263916 -2147.8786621 -2135.2600098 -2081.8146973
          -1993.5081787 -1677.3178711 -1905.6196289 -2010.7224121 -1802.5126953 -1831.5019531
          -1949.8112793 -1688.4075928 -1768.9169922 -1846.6945801 -1720.5550537 -1715.7089844
          -2019.4573975 -2011.8726807 -1683.788208 -1750.6254883 -1901.8746338 -1656.3131104
          -2161.8762207 -2147.6513672 -2087.6962891 -1637.0373535 -1989.1152344 -2050.4470215
          -1889.2316895 -1793.0297852 -1971.2224121 -1803.3537598 -1656.3131104 -1731.618042
          -1845.5944824 -2060.0722656 -1676.4916992 -1683.788208 -2041.9597168 -1643.2310791
          -1908.7143555 -1720.5550537 -1620.3027344 -2166.6777344 -2149.9584961 -2085.2512207
          -2082.2060547 -1586.307251 -1975.3123779 -1768.9169922 -1867.1467285 -1986.486084
          -1773.0283203 -1620.3027344 -1691.0296631 -2095.7958984 -1831.5019531 -1618.8879395
          -2065.8103027 -1643.2310791 -1586.0444336 -1905.6196289 -1676.4916992 -1569.0083008
          -2113.9694824 -2162.3916016 -2141.8139648 -2067.7390137 -1516.326416 -1731.618042
          -1957.6363525 -1993.5081787 -1843.5036621 -1736.6723633 -1569.0083008 -2125.4663086
          -1631.0996094 -1803.3537598 -2081.8146973 -1524.0084229 -1586.0444336 -1474.2198486
          -1889.2316895 -1618.8879395 -1479.7307129 -2135.2600098 -2151.6601563 -2123.5991211
          -1449.9571533 -1691.0296631 -2042.9415283 -1989.1152344 -1926.9844971 -1796.9437256
          -1479.7307129 -2147.8786621 -1667.0413818 -1773.0283203 -1543.9591064 -2087.6962891
          -1474.2198486 -1397.1063232 -1285.9058838 -1867.1467285 -1524.0084229 -2147.6513672
          -1395.3325195 -1975.3123779 -2138.1223145 -1631.0996094 -2107.296875 -1579.6501465
          -2025.4765625 -1906.819458 -1768.4581299 -2161.8762207 -1395.3325195 -1616.3031006
          -1736.6723633 -2082.2060547 -1439.1635742 -1285.9058838 -1297.8151855 -1843.5036621
          -1302.5169678 -1397.1063232 -2149.9584961 -1321.3588867 -1957.6363525 -1543.9591064
          -1383.4182129 -2166.6777344 -1321.3588867 -1667.0413818 -2067.7390137 -1302.5169678
          -1796.9437256 -2141.8139648 -1297.8151855 -1926.9844971 -1439.1635742 -2162.3916016
          -2042.9415283 -1616.3031006 -1768.4581299 -2123.5991211 -1906.819458 -2151.6601563
          -2025.4765625 -2107.296875 -2138.1223145
        </DataArray>
        <DataArray type="Float32" Name="VELOCITY" NumberOfComponents="3" ComponentName0="X-VELOCITY" ComponentName1="Y-VELOCITY" ComponentName2="Z-VELOCITY" format="ascii" RangeMin="0" RangeMax="88.693450928">
          0 0 0 0 0 0
          13.523327827 -0.038367949426 0 13.595484734 -0.0059197298251 0
          27.013109207 -0.0015223709634 0 0 0 0
          13.609537125 0.0045452159829 0 27.049077988 0.0075607886538 0
          27.063079834 0.011027957313 0 38.220439911 -0.0054582762532 0
          0 0 0 13.615229607 0.0079844286665 0
          38.228538513 0.0023247401696 0 38.234336853 0.0057617169805 0
          27.069908142 0.011057543568 0 48.003871918 -0.0061134016141 0
          0 0 0 13.61772728 0.0081582823768 0
          48.003883362 -0.0018621272175 0 38.237991333 0.0065335310064 0
          27.074241638 0.0098152188584 0 48.005943298 0.0012614767766 0
          38.240558624 0.006224103272 0 56.217487335 -0.0053168418817 0
          0 0 0 48.008255005 0.0028139592614 0
          56.216217041 -0.0030599574093 0 13.618423462 0.0071345893666 0
          27.077161789 0.0081996908411 0 56.216552734 -0.00073537125718 0
          48.010280609 0.0033827859443 0 38.242401123 0.0054939710535 0
          56.217632294 0.00083394104149 0 0 0 0
          62.155448914 -0.0040607042611 0 62.15411377 -0.0027803359553 0
          13.618121147 0.0058347694576 0 62.153694153 -0.0012160176411 0
          27.079084396 0.0066093760543 0 56.218849182 0.001694010105 0
          48.0119133 0.0034032210242 0 38.243675232 0.0046387063339 0
          62.153930664 2.2502819775e-005 0 0 0 0
          63.745559692 -0.0027885746676 0 56.219959259 0.0020573053043 0
          13.61732769 0.0046132644638 0 63.744361877 -0.0020299865864 0
          62.154468536 0.00082277675392 0 48.013156891 0.0031402865425 0
          27.080305099 0.0052122431807 0 63.743694305 -0.0010324376635 0
          38.244503021 0.0038081449457 0 63.743507385 -0.00017112639034 0
          62.155086517 0.0012570709223 0 56.22088623 0.0021110600792 0
          67.447776794 -0.0016642678529 0 0 0 0
          63.743629456 0.00043991327402 0 13.616354942 0.0035821686033 0
          67.446853638 -0.0012626668904 0 48.014064789 0.0027558743022 0
          27.081050873 0.0040604271926 0 67.446311951 -0.00068054028088 0
          62.155673981 0.0014330943814 0 67.446128845 -0.00015252269804 0
          38.245010376 0.0030755703337 0 56.221618652 0.0019913085271 0
          63.743911743 0.00081230537035 0 67.446212769 0.0002472998749 0
          48.014709473 0.0023468006402 0 79.459289551 -0.00079186353832 0
          0 0 0 13.61537838 0.0027564647608 0
          79.458526611 -0.00062346667983 0 63.744251251 0.00099904718809 0
          27.081489563 0.0031495569274 0 62.15619278 0.001444713911 0
          79.458045959 -0.00035679157008 0 67.446456909 0.00051099364646 0
          56.222175598 0.0017892378382 0 38.245300293 0.0024688672274 0
          79.457847595 -0.00010417544399 0 48.015155792 0.0019666028675 0
          79.457870483 9.611499263e-005 0 63.744594574 0.0010532037122 0
          88.086868286 1.2902119694e-013 0 67.446784973 0.00065592839383 0
          0 0 0 62.156627655 0.0013599452795 0
          13.61449337 0.0021152505651 0 88.086174011 1.1536285165e-013 0
          27.081739426 0.0024511564989 0 88.085700989 9.5552072385e-014 0
          56.222595215 0.0015612948919 0 79.458068848 0.00023408245761 0
          38.245452881 0.0019902684726 0 88.085479736 7.0861075525e-014 0
          67.447143555 0.00070310512092 0 63.744926453 0.0010158392834 0
          88.085479736 3.5163146402e-014 0 48.015460968 0.0016407967778 0
          62.156986237 0.0012239986099 0 79.458366394 0.00031066409429 0
          0 0 0 79.459289551 0.00079186353832 0
          13.613743782 0.001627177815 0 79.458526611 0.00062346667983 0
          27.081878662 0.0019295582315 0 56.222904205 0.001339835464 0
          79.458045959 0.00035679157008 0 88.085639954 -6.8876039414e-015 0
          67.447509766 0.00067639880581 0 79.457847595 0.00010417544399 0
          63.745235443 0.00092216348276 0 38.245529175 0.0016292363871 0
          79.458717346 0.00033263480873 0 88.085906982 -4.5533994191e-014 0
          62.157287598 0.0010691278148 0 79.457870483 -9.611499263e-005 0
          48.015674591 0.0013780994341 0 67.447776794 0.0016642678529 0
          0 0 0 67.446853638 0.0012626668904 0
          67.447853088 0.00061110791285 0 13.61315155 0.0012606304372 0
          79.459068298 0.00031693914207 0 56.223144531 0.0011430300074 0
          79.458068848 -0.00023408245761 0 67.446311951 0.00068054028088 0
          27.081962585 0.0015498473076 0 63.745513916 0.00081057642819 0
          88.086204529 -7.6218938387e-014 0 67.446128845 0.00015252269804 0
          38.245563507 0.0013701277785 0 62.157535553 0.00092250894522 0
          79.458366394 -0.00031066409429 0 67.446212769 -0.0002472998749 0
          48.015830994 0.0011781441281 0 79.459388733 0.00029178202385 0
          67.448143005 0.00055078085279 0 88.086494446 -9.4900351683e-014 0
          63.745559692 0.0027885746676 0 0 0 0
          67.446456909 -0.00051099364646 0 56.223331451 0.00098136009183 0
          63.745738983 0.00071798084537 0 63.744361877 0.0020299865864 0
          13.612725258 0.00098727969453 0 79.458717346 -0.00033263480873 0
          27.082023621 0.0012808850734 0 63.743694305 0.0010324376635 0
          63.743507385 0.00017112639034 0 38.24559021 0.0011961915297 0
          67.446784973 -0.00065592839383 0 62.157730103 0.00080438877922 0
          88.086776733 -1.0489080714e-013 0 79.459671021 0.00028250931064 0
          67.448379517 0.00052207987756 0 48.015953064 0.0010359443258 0
          79.459068298 -0.00031693914207 0 63.743629456 -0.00043991327402 0
          63.745903015 0.00065887713572 0 67.447143555 -0.00070310512092 0
          56.223480225 0.00085889553884 0 63.743911743 -0.00081230537035 0
          62.155448914 0.0040607042611 0 0 0 0
          13.612470627 0.00078278745059 0 62.15411377 0.0027803359553 0
          88.087043762 -1.0642851753e-013 0 62.153694153 0.0012160176411 0
          27.082086563 0.0010958507191 0 79.459388733 -0.00029178202385 0
          79.459938049 0.00028815018595 0 62.153930664 -2.2502819775e-005 0
          63.744251251 -0.00099904718809 0 38.245620728 0.001091315411 0
          62.157875061 0.0007182083209 0 67.447509766 -0.00067639880581 0
          67.448570251 0.00050703517627 0 62.154468536 -0.00082277675392 0
          48.01606369 0.00094386539422 0 63.7460289 0.00060966104502 0
          63.744594574 -0.0010532037122 0 79.459671021 -0.00028250931064 0
          56.22359848 0.00077153043821 0 62.155086517 -0.0012570709223 0
          88.08732605 -9.6157226604e-014 0 67.447853088 -0.00061110791285 0
          56.217487335 0.0053168418817 0 0 0 0
          79.460197449 0.00027508210042 0 13.612393379 0.00062634184724 0
          56.216217041 0.0030599574093 0 27.082168579 0.00097169342916 0
          56.216552734 0.00073537125718 0 62.155673981 -0.0014330943814 0
          62.157981873 0.00064631737769 0 63.744926453 -0.0010158392834 0
          67.448760986 0.00045209378004 0 56.217632294 -0.00083394104149 0
          38.245674133 0.0010406448273 0 56.218849182 -0.001694010105 0
          48.016170502 0.00089256570209 0 79.459938049 -0.00028815018595 0
          67.448143005 -0.00055078085279 0 88.087608337 -7.9424043297e-014 0
          63.7461586 0.00052736734506 0 62.15619278 -0.001444713911 0
          63.745235443 -0.00092216348276 0 56.223709106 0.0007076440379 0
          56.219959259 -0.0020573053043 0 79.460456848 0.00020998787659 0
          48.003871918 0.0061134016141 0 0 0 0
          48.003883362 0.0018621272175 0 13.612503052 0.00049975170987 0
          48.005943298 -0.0012614767766 0 62.156627655 -0.0013599452795 0
          67.448989868 0.00032916985219 0 27.082284927 0.00088815076742 0
          62.158100128 0.00056449562544 0 56.22088623 -0.0021110600792 0
          67.448379517 -0.00052207987756 0 48.008255005 -0.0028139592614 0
          38.245761871 0.0010307087796 0 79.460197449 -0.00027508210042 0
          63.745513916 -0.00081057642819 0 88.087814331 -6.2616436287e-014 0
          48.016292572 0.00087207055185 0 48.010280609 -0.0033827859443 0
          63.746337891 0.00040252978215 0 56.221618652 -0.0019913085271 0
          62.156986237 -0.0012239986099 0 79.460662842 0.00011367031402 0
          56.223831177 0.00065426214132 0 48.0119133 -0.0034032210242 0
          67.448570251 -0.00050703517627 0 67.449203491 0.00019941112259 0
          0 0 0 56.222175598 -0.0017892378382 0
          38.220439911 0.0054582762532 0 79.460456848 -0.00020998787659 0
          63.745738983 -0.00071798084537 0 38.228538513 -0.0023247401696 0
          13.612816811 0.00038635192323 0 48.013156891 -0.0031402865425 0
          62.158256531 0.00046928419033 0 38.234336853 -0.0057617169805 0
          27.082447052 0.00082650250988 0 62.157287598 -0.0010691278148 0
          88.087905884 -4.4797024705e-014 0 38.245891571 0.0010490340646 0
          38.237991333 -0.0065335310064 0 48.014064789 -0.0027558743022 0
          38.240558624 -0.006224103272 0 48.016437531 0.00087254930986 0
          63.746528625 0.00029625266325 0 56.222595215 -0.0015612948919 0
          79.460769653 7.3103416071e-005 0 63.745903015 -0.00065887713572 0
          67.448760986 -0.00045209378004 0 38.242401123 -0.0054939710535 0
          56.223983765 0.00060462008696 0 62.157535553 -0.00092250894522 0
          79.460662842 -0.00011367031402 0 67.449325562 0.00019021162007 0
          48.014709473 -0.0023468006402 0 0 0 0
          27.013109207 0.0015223709634 0 38.243675232 -0.0046387063339 0
          13.613359451 0.00026978549431 0 62.158424377 0.00039020492113 0
          56.222904205 -0.001339835464 0 27.049077988 -0.0075607886538 0
          88.08795166 -5.2218446174e-014 0 27.063079834 -0.011027957313 0
          27.082668304 0.00076802348485 0 38.246074677 0.0010828531813 0
          27.069908142 -0.011057543568 0 48.015155792 -0.0019666028675 0
          79.46081543 0.00016333158419 0 63.7460289 -0.00060966104502 0
          63.746623993 0.00029918580549 0 38.244503021 -0.0038081449457 0
          67.448989868 -0.00032916985219 0 27.074241638 -0.0098152188584 0
          62.157730103 -0.00080438877922 0 48.016616821 0.00088351679733 0
          79.460769653 -7.3103416071e-005 0 56.223144531 -0.0011430300074 0
          56.224163055 0.00055931694806 0 27.077161789 -0.0081996908411 0
          67.449310303 0.00035601507989 0 38.245010376 -0.0030755703337 0
          48.015460968 -0.0016407967778 0 88.088088989 -6.8548689132e-014 0
          27.079084396 -0.0066093760543 0 62.158535004 0.0003626679827 0
          13.523327827 0.038367949426 0 0 0 0
          13.595484734 0.0059197298251 0 13.614164352 0.0001327307109 0
          63.7461586 -0.00052736734506 0 27.082963943 0.00069221260492 0
          13.609537125 -0.0045452159829 0 62.157875061 -0.0007182083209 0
          56.223331451 -0.00098136009183 0 67.449203491 -0.00019941112259 0
          38.245300293 -0.0024688672274 0 13.615229607 -0.0079844286665 0
          38.246322632 0.0011170501821 0 79.460914612 0.00032667187043 0
          27.080305099 -0.0052122431807 0 63.746551514 0.00041713778046 0
          79.46081543 -0.00016333158419 0 13.61772728 -0.0081582823768 0
          48.015674591 -0.0013780994341 0 48.016838074 0.00089220784139 0
          56.224342346 0.0005186542403 0 13.618423462 -0.0071345893666 0
          67.449256897 0.00054020801326 0 27.081050873 -0.0040604271926 0
          38.245452881 -0.0019902684726 0 88.088417053 -7.5642088621e-014 0
          62.157981873 -0.00064631737769 0 63.746337891 -0.00040252978215 0
          56.223480225 -0.00085889553884 0 62.158535004 0.00037456082646 0
          13.618121147 -0.0058347694576 0 67.449325562 -0.00019021162007 0
          0 0 0 48.015830994 -0.0011781441281 0
          0 0 0 0 0 0
          13.615278244 -4.4315849664e-005 0 0 0 0
          27.083351135 0.00057506683515 0 27.081489563 -0.0031495569274 0
          79.461174011 0.00035560951801 0 0 0 0
          38.246643066 0.0011326748645 0 13.61732769 -0.0046132644638 0
          79.460914612 -0.00032667187043 0 63.746398926 0.00049361272249 0
          38.245529175 -0.0016292363871 0 0 0 0
          48.017105103 0.00088427390438 0 62.158100128 -0.00056449562544 0
          56.22359848 -0.00077153043821 0 27.081739426 -0.0024511564989 0
          88.088775635 -6.2614112029e-014 0 13.616354942 -0.0035821686033 0
          56.224498749 0.00047161802649 0 67.449371338 0.00044080478256 0
          48.015953064 -0.0010359443258 0 63.746528625 -0.00029625266325 0
          0 0 0 67.449310303 -0.00035601507989 0
          38.245563507 -0.0013701277785 0 0 0 0
          62.158473969 0.00033845796133 0 0 0 0
          13.616760254 -0.00028418886359 0 13.61537838 -0.0027564647608 0
          79.461517334 8.453749615e-005 0 27.083848953 0.0003875628463 0
          27.081878662 -0.0019295582315 0 79.461174011 -0.00035560951801 0
          63.74641037 0.0003035167756 0 0 0 0