# vtk DataFile Version 2.0

ASCII

DATASET UNSTRUCTURED_GRID
POINTS 6689 double
  -0.000000  0.412952  0.626076
  -0.021006  0.412816  0.625814
  -0.020666  0.432849  0.612139
  -0.000000  0.433013  0.612372
  -0.042003  0.412361  0.625056
  -0.041316  0.432356  0.611442
  -0.062972  0.411585  0.623805
  -0.061935  0.431533  0.610281
  -0.083898  0.410490  0.622061
  -0.082506  0.430384  0.608656
  -0.104761  0.409077  0.619824
  -0.103015  0.428909  0.606568
  -0.125545  0.407347  0.617096
  -0.123446  0.427107  0.604020
  -0.146232  0.405300  0.613879
  -0.143783  0.424982  0.601014
  -0.166806  0.402939  0.610178
  -0.164011  0.422532  0.597551
  -0.187248  0.400266  0.605991
  -0.184115  0.419763  0.593634
  -0.207543  0.397281  0.601326
  -0.204078  0.416675  0.589266
  -0.227671  0.393990  0.596186
  -0.223886  0.413270  0.584451
  -0.247620  0.390393  0.590574
  -0.243525  0.409551  0.579192
  -0.267370  0.386493  0.584496
  -0.262979  0.405522  0.573493
  -0.286907  0.382296  0.577958
  -0.282232  0.401184  0.567360
  -0.306211  0.377802  0.570963
  -0.301272  0.396541  0.560794
  -0.325272  0.373019  0.563520
  -0.320082  0.391597  0.553803
  -0.344070  0.367947  0.555636
  -0.338650  0.386358  0.546392
  -0.362592  0.362592  0.547314
  -0.356961  0.380823  0.538566
  -0.380823  0.356961  0.538566
  -0.375000  0.375000  0.530330
  -0.000000  0.392459  0.639122
  -0.021331  0.392344  0.638835
  -0.042658  0.391921  0.638026
  -0.063963  0.391191  0.636693
  -0.085225  0.390150  0.634839
  -0.106425  0.388802  0.632462
  -0.127546  0.387144  0.629563
  -0.148567  0.385182  0.626150
  -0.169468  0.382914  0.622219
  -0.190234  0.380344  0.617778
  -0.210843  0.377474  0.612828
  -0.231277  0.374306  0.607376
  -0.251520  0.370842  0.601426
  -0.271551  0.367088  0.594984
  -0.291355  0.363043  0.588057
  -0.310912  0.358716  0.580651
  -0.330209  0.354108  0.572774
  -0.349225  0.349225  0.564432
  -0.367947  0.344070  0.555636
  -0.386358  0.338650  0.546392
  -0.000000  0.371552  0.651498
  -0.021640  0.371455  0.651193
  -0.043282  0.371063  0.650337
  -0.064904  0.370372  0.648931
  -0.086486  0.369386  0.646974
  -0.108007  0.368102  0.644466
  -0.129447  0.366522  0.641409
  -0.150784  0.364647  0.637806
  -0.171997  0.362480  0.633660
  -0.193068  0.360019  0.628976
  -0.213975  0.357272  0.623756
  -0.234699  0.354237  0.618008
  -0.255219  0.350919  0.611734
  -0.275517  0.347322  0.604946
  -0.295572  0.343448  0.597646
  -0.315369  0.339302  0.589845
  -0.334887  0.334887  0.581551
  -0.354108  0.330209  0.572774
  -0.373019  0.325272  0.563520
  -0.391597  0.320082  0.553803
  -0.000000  0.350256  0.663189
  -0.021933  0.350172  0.662871
  -0.043873  0.349804  0.661976
  -0.065796  0.349154  0.660501
  -0.087681  0.348219  0.658449
  -0.109505  0.347001  0.655819
  -0.131245  0.345500  0.652614
  -0.152882  0.343718  0.648834
  -0.174389  0.341655  0.644486
  -0.195747  0.339313  0.639570
  -0.216936  0.336696  0.634094
  -0.237930  0.333806  0.628063
  -0.258713  0.330644  0.621484
  -0.279261  0.327216  0.614364
  -0.299555  0.323524  0.606712
  -0.319573  0.319573  0.598536
  -0.339302  0.315369  0.589845
  -0.358716  0.310912  0.580651
  -0.377802  0.306211  0.570963
  -0.396541  0.301272  0.560794
  -0.000000  0.328593  0.674185
  -0.022210  0.328516  0.673857
  -0.044430  0.328172  0.672925
  -0.066637  0.327558  0.671391
  -0.088807  0.326674  0.669250
  -0.110915  0.325524  0.666507
  -0.132939  0.324103  0.663162
  -0.154855  0.322418  0.659217
  -0.176639  0.320464  0.654676
  -0.198268  0.318248  0.649545
  -0.219718  0.315770  0.643827
  -0.240969  0.313032  0.637530
  -0.261996  0.310038  0.630663
  -0.282778  0.306790  0.623231
  -0.303295  0.303295  0.615243
  -0.323524  0.299555  0.606712
  -0.343448  0.295572  0.597646
  -0.363043  0.291355  0.588057
  -0.382296  0.286907  0.577958
  -0.401184  0.282232  0.567360
  -0.000000  0.306585  0.684474
  -0.022471  0.306511  0.684138
  -0.044955  0.306186  0.683175
  -0.067427  0.305609  0.681584
  -0.089863  0.304778  0.679364
  -0.112238  0.303693  0.676515
  -0.134527  0.302358  0.673040
  -0.156703  0.300770  0.668940
  -0.178745  0.298932  0.664221
  -0.200627  0.296845  0.658887
  -0.222323  0.294515  0.652942
  -0.243810  0.291937  0.646397
  -0.265065  0.289121  0.639257
  -0.286067  0.286067  0.631531
  -0.306790  0.282778  0.623231
  -0.327216  0.279261  0.614364
  -0.347322  0.275517  0.604946
  -0.367088  0.271551  0.594984
  -0.386493  0.267370  0.584496
  -0.405522  0.262979  0.573493
  -0.000000  0.284256  0.694046
  -0.022714  0.284183  0.693704
  -0.045445  0.283874  0.692712
  -0.068165  0.283330  0.691070
  -0.090849  0.282551  0.688775
  -0.113471  0.281536  0.685828
  -0.136005  0.280285  0.682233
  -0.158425  0.278801  0.677991
  -0.180705  0.277083  0.673106
  -0.202819  0.275133  0.667582
  -0.224742  0.272955  0.661428
  -0.246450  0.270547  0.654649
  -0.267918  0.267918  0.647256
  -0.289121  0.265065  0.639257
  -0.310038  0.261996  0.630663
  -0.330644  0.258713  0.621484
  -0.350919  0.255219  0.611734
  -0.370842  0.251520  0.601426
  -0.390393  0.247620  0.590574
  -0.409551  0.243525  0.579192
  -0.000000  0.261628  0.702888
  -0.022942  0.261552  0.702542
  -0.045901  0.261259  0.701524
  -0.068850  0.260749  0.699836
  -0.091764  0.260022  0.697473
  -0.114614  0.259077  0.694437
  -0.137374  0.257915  0.690730
  -0.160017  0.256536  0.686355
  -0.182515  0.254943  0.681316
  -0.204844  0.253134  0.675620
  -0.226977  0.251115  0.669270
  -0.248886  0.248886  0.662277
  -0.270547  0.246450  0.654649
  -0.291937  0.243810  0.646397
  -0.313032  0.240969  0.637530
  -0.333806  0.237930  0.628063
  -0.354237  0.234699  0.618008
  -0.374306  0.231277  0.607376
  -0.393990  0.227671  0.596186
  -0.413270  0.223886  0.584451
  -0.000000  0.238725  0.710993
  -0.023152  0.238645  0.710643
  -0.046322  0.238366  0.709602
  -0.069482  0.237890  0.707871
  -0.092606  0.237216  0.705446
  -0.115665  0.236342  0.702327
  -0.138631  0.235270  0.698519
  -0.161478  0.234002  0.694023
  -0.184176  0.232536  0.688843
  -0.206700  0.230876  0.682987
  -0.229022  0.229022  0.676459
  -0.251115  0.226977  0.669270
  -0.272955  0.224742  0.661428
  -0.294515  0.222323  0.652942
  -0.315770  0.219718  0.643827
  -0.336696  0.216936  0.634094
  -0.357272  0.213975  0.623756
  -0.377474  0.210843  0.612828
  -0.397281  0.207543  0.601326
  -0.416675  0.204078  0.589266
  0.000000  0.215573  0.718352
  -0.023345  0.215487  0.717998
  -0.046707  0.215223  0.716937
  -0.070060  0.214781  0.715166
  -0.093374  0.214160  0.712683
  -0.116622  0.213360  0.709491
  -0.139775  0.212380  0.705589
  -0.162805  0.211226  0.700985
  -0.185684  0.209892  0.695677
  -0.208383  0.208383  0.689676
  -0.230876  0.206700  0.682987
  -0.253134  0.204844  0.675620
  -0.275133  0.202819  0.667582
  -0.296845  0.200627  0.658887
  -0.318248  0.198268  0.649545
  -0.339313  0.195747  0.639570
  -0.360019  0.193068  0.628976
  -0.380344  0.190234  0.617778
  -0.400266  0.187248  0.605991
  -0.419763  0.184115  0.593634
  0.000000  0.192193  0.724956
  -0.023520  0.192102  0.724599
  -0.047057  0.191853  0.723518
  -0.070583  0.191446  0.721710
  -0.094069  0.190881  0.719176
  -0.117486  0.190157  0.715917
  -0.140805  0.189274  0.711933
  -0.163998  0.188233  0.707229
  -0.187036  0.187036  0.701808
  -0.209892  0.185684  0.695677
  -0.232536  0.184176  0.688843
  -0.254943  0.182515  0.681316
  -0.277083  0.180705  0.673106
  -0.298932  0.178745  0.664221
  -0.320464  0.176639  0.654676
  -0.341655  0.174389  0.644486
  -0.362480  0.171997  0.633660
  -0.382914  0.169468  0.622219
  -0.402939  0.166806  0.610178
  -0.422532  0.164011  0.597551
  0.000000  0.168613  0.730800
  -0.023678  0.168517  0.730438
  -0.047371  0.168285  0.729339
  -0.071051  0.167914  0.727500
  -0.094689  0.167406  0.724920
  -0.118254  0.166761  0.721601
  -0.141720  0.165976  0.717543
  -0.165055  0.165055  0.712751
  -0.188233  0.163998  0.707229
  -0.211226  0.162805  0.700985
  -0.234002  0.161478  0.694023
  -0.256536  0.160017  0.686355
  -0.278801  0.158425  0.677991
  -0.300770  0.156703  0.668940
  -0.322418  0.154855  0.659217
  -0.343718  0.152882  0.648834
  -0.364647  0.150784  0.637806
  -0.385182  0.148567  0.626150
  -0.405300  0.146232  0.613879
  -0.424982  0.143783  0.601014
  0.000000  0.144855  0.735879
  -0.023819  0.144758  0.735512
  -0.047650  0.144545  0.734395
  -0.071464  0.144214  0.732526
  -0.095233  0.143766  0.729906
  -0.118928  0.143201  0.726533
  -0.142518  0.142518  0.722411
  -0.165976  0.141720  0.717543
  -0.189274  0.140805  0.711933
  -0.212380  0.139775  0.705589
  -0.235270  0.138631  0.698519
  -0.257915  0.137374  0.690730
  -0.280285  0.136005  0.682233
  -0.302358  0.134527  0.673040
  -0.324103  0.132939  0.663162
  -0.345500  0.131245  0.652614
  -0.366522  0.129447  0.641409
  -0.387144  0.127546  0.629563
  -0.407347  0.125545  0.617096
  -0.427107  0.123446  0.604020
  0.000000  0.120946  0.740184
  -0.023942  0.120850  0.739812
  -0.047892  0.120659  0.738679
  -0.071822  0.120370  0.736785
  -0.095702  0.119986  0.734128
  -0.119505  0.119505  0.730710
  -0.143201  0.118928  0.726533
  -0.166761  0.118254  0.721601
  -0.190157  0.117486  0.715917
  -0.213360  0.116622  0.709491
  -0.236342  0.115665  0.702327
  -0.259077  0.114614  0.694437
  -0.281536  0.113471  0.685828
  -0.303693  0.112238  0.676515
  -0.325524  0.110915  0.666507
  -0.347001  0.109505  0.655819
  -0.368102  0.108007  0.644466
  -0.388802  0.106425  0.632462
  -0.409077  0.104761  0.619824
  -0.428909  0.103015  0.606568
  0.000000  0.096909  0.743712
  -0.024047  0.096820  0.743336
  -0.048098  0.096654  0.742189
  -0.072123  0.096413  0.740272
  -0.096096  0.096096  0.737585
  -0.119986  0.095702  0.734128
  -0.143766  0.095233  0.729906
  -0.167406  0.094689  0.724920
  -0.190881  0.094069  0.719176
  -0.214160  0.093374  0.712683
[...]
POINT_DATA 6689
SCALARS DataInterp double
LOOKUP_TABLE default
  -0.808922
  -0.804769
  -0.791410
  -0.795550
  -0.792105
  -0.778783
  -0.770273
  -0.757059
  -0.738205
  -0.725276
  -0.694551
  -0.682203
  -0.637817
  -0.626466
  -0.566558
  -0.556723
  -0.479511
  -0.471869
  -0.376026
  -0.371294
  -0.256419
  -0.255163
  -0.121993
  -0.124652
  0.024716
  0.017841
  0.179565
  0.168589
  0.337117
  0.322598
  0.490949
  0.473911
  0.634147
  0.615959
  0.759899
  0.742265
  0.862427
  0.847063
  0.937551
  0.925993
  -0.820201
  -0.816040
  -0.803367
  -0.781426
  -0.749073
  -0.704887
  -0.647204
  -0.574478
  -0.485296
  -0.378986
  -0.256114
  -0.118059
  0.032485
  0.191073
  0.351798
  0.507761
  0.651663
  0.776489
  0.876473
  0.947665
  -0.829555
  -0.825393
  -0.812701
  -0.790651
  -0.758044
  -0.713375
  -0.654755
  -0.580599
  -0.489542
  -0.380806
  -0.254802
  -0.113060
  0.041161
  0.203110
  0.366561
  0.524224
  0.668423
  0.792005
  0.889236
  0.956432
  -0.837159
  -0.833002
  -0.820254
  -0.798103
  -0.765271
  -0.720065
  -0.660478
  -0.584999
  -0.492379
  -0.381597
  -0.252669
  -0.107322
  0.050459
  0.215509
  0.381302
  0.540215
  0.684376
  0.806438
  0.900755
  0.963980
  -0.843188
  -0.839015
  -0.826218
  -0.804011
  -0.770873
  -0.725051
  -0.664689
  -0.588056
  -0.493511
  -0.380220
  -0.248598
  -0.100447
  0.060200
  0.228030
  0.395830
  0.555687
  0.699463
  0.819773
  0.911110
  0.970415
  -0.847819
  -0.843627
  -0.830796
  -0.808436
  -0.774898
  -0.728539
  -0.667571
  -0.589718
  -0.492830
  -0.376683
  -0.242571
  -0.092427
  0.070345
  0.240488
  0.409965
  0.570516
  0.713638
  0.832062
  0.920355
  0.975853
  -0.851222
  -0.847027
  -0.834142
  -0.811541
  -0.777718
  -0.731014
  -0.669233
  -0.589954
  -0.491464
  -0.373718
  -0.237504
  -0.084668
  0.080856
  0.253077
  0.423789
  0.584616
  0.726843
  0.843255
  0.928544
  0.980404
  -0.853569
  -0.849317
  -0.836366
  -0.813589
  -0.779472
  -0.732307
  -0.669501
  -0.588999
  -0.489969
  -0.371626
  -0.233234
  -0.077048
  0.091365
  0.265285
  0.436977
  0.597898
  0.739092
  0.853418
  0.935749
  0.984177
  -0.855022
  -0.850696
  -0.837708
  -0.814803
  -0.780317
  -0.732686
  -0.669032
  -0.587240
  -0.486960
  -0.367102
  -0.226632
  -0.068326
  0.101803
  0.277010
  0.449538
  0.610276
  0.750352
  0.862575
  0.942049
  0.987270
  -0.855742
  -0.851384
  -0.838276
  -0.815101
  -0.780296
  -0.732392
  -0.668096
  -0.584715
  -0.482079
  -0.359920
  -0.218116
  -0.059215
  0.111719
  0.287979
  0.461160
  0.621556
  0.760514
  0.870708
  0.947510
  0.989779
  -0.855885
  -0.851542
  -0.838263
  -0.814842
  -0.779793
  -0.731404
  -0.666592
  -0.582408
  -0.478197
  -0.354186
  -0.211129
  -0.051196
  0.120980
  0.298309
  0.471895
  0.631880
  0.769642
  0.877858
  0.952198
  0.991789
  -0.855600
  -0.851280
  -0.837874
  -0.814256
  -0.778782
  -0.729461
  -0.664126
  -0.580129
  -0.475800
  -0.350770
  -0.206004
  -0.044082
  0.129723
  0.307855
  0.481562
  0.641070
  0.777623
  0.884068
  0.956191
  0.993380
  -0.855026
  -0.850711
  -0.837222
  -0.813366
  -0.777476
  -0.727477
  -0.661542
  -0.577270
  -0.472606
  -0.346605
  -0.200248
  -0.036877
  0.137799
  0.316305
  0.489957
  0.649035
  0.784509
  0.889347
  0.959515
  0.994618
  -0.854294
  -0.849909
  -0.836264
  -0.812208
  -0.776235
  -0.726127
  -0.659544
  -0.574127
  -0.468236
  -0.341110
  -0.193941
  -0.030195
  0.144771
  0.323536
  0.497181
  0.655817
  0.790325
  0.893732
  0.962215
  0.995566
  -0.853521
  -0.849041
  -0.835219
  -0.811047
  -0.775046
  -0.724782
  -0.657618
  -0.571326
  -0.464578
  -0.336908
  -0.189400
  -0.025199
  0.150395
  0.329633
  0.503232
  0.661371
  0.795015
  0.897241
  0.964354
  0.996272
  -0.852807
  -0.848362
  -0.834571
  -0.810242
  -0.773849
  -0.723093
  -0.655564
  -0.569135
  -0.462228
  -0.334284
  -0.186289
  -0.021357
  0.154864
  0.334420
  0.507960
  0.665673
  0.798611
  0.899937
  0.965971
  0.996778
  -0.852237
  -0.847839
  -0.834091
  -0.809568
  -0.772765
  -0.721712
  -0.654071
  -0.567533
  -0.460304
  -0.331852
  -0.183364
  -0.018128
  0.158149
  0.337657
  0.511108
  0.668591
  0.801109
  0.901800
  0.967090
  0.997118
  -0.851869
  -0.847385
  -0.833494
  -0.808938
  -0.772128
  -0.721054
  -0.653297
  -0.566499
  -0.458955
  -0.330228
  -0.181578
  -0.016313
  0.159956
  0.339441
  0.512821
  0.670186
  0.802469
  0.902844
  0.967729
  0.997313
  -0.851743
  -0.847200
  -0.833207
  -0.808685
  -0.771940
  -0.720808
  -0.652920
  -0.566034
  -0.458523
  -0.329868
  -0.181262
  -0.015985
  0.160314
  0.339820
  0.513174
  0.670495
  0.802748
  0.903087
  0.967905
  0.997375
  0.967905
  0.967729
  0.997313
  0.997376
  0.967083
  0.997118
  0.965957
  0.996778
  0.964346
  0.996272
  0.962216
  0.995566
  0.959507
  0.994618
  0.956170
  0.993379
  0.952212
  0.991788
  0.947593
  0.989778
  0.942118
  0.987269
  0.935745
  0.984176
  0.928526
  0.980404
  0.920363
  0.975853
  0.911117
  0.970414
  0.900747
  0.963979
  0.889231
  0.956432
  0.876474
  0.947664
  0.862428
  0.937551
  0.847064
  0.925993
  0.903087
  0.902834
  0.901768
  0.899929
  0.897238
  0.893689
  0.889303
  0.884067
  0.877912
  0.870849
  0.862701
  0.853470
  0.843302
  0.832129
  0.819816
  0.806445
  0.792001
  0.776485
  0.759895
  0.742265
  0.802748
  0.802452
  0.801071
  0.798633
  0.795018
  0.790283
  0.784503
  0.777666
  0.769598
  0.760425
  0.750337
  0.739231
  0.726998
  0.713690
  0.699485
  0.684400
  0.668414
  0.651639
  0.634139
  0.615959
  0.670495
  0.670193
  0.668560
  0.665669
  0.661428
  0.655954
  0.649148
  0.641168
  0.631848
  0.621355
  0.610035
  0.597845
  0.584598
  0.570440
  0.555665
  0.540191
  0.524189
  0.507741
  0.490952
  0.473911
  0.513174
  0.512878
  0.511098
  0.507926
  0.503396
  0.497550
  0.490127
  0.481568
  0.471862
  0.461108
  0.449322
  0.436706
  0.423522
  0.409741
  0.395637
  0.381123
  0.366491
  0.351770
  0.337113
  0.322598
  0.339820
  0.339514
  0.337688
  0.334451
  0.329819
  0.323905
  0.316594
  0.308097
  0.298626
  0.288390
  0.276953
  0.264733
  0.252493
  0.240064
  0.227653
  0.215215
  0.203001
  0.191036
  0.179542
  0.168589
  0.160314
  0.159974
  0.158234
  0.155032
  0.150319
  0.144657
  0.138170
  0.130304
  0.121182
  0.111814
  0.101704
  0.090990
  0.080288
  0.069738
  0.059705
  0.050073
  0.040952
  0.032412
  0.024668
  0.017841
  -0.015984
  -0.016405
  -0.017993
  -0.020966
  -0.025525
  -0.030669
  -0.035991
  -0.043095
  -0.051991
  -0.060426
  -0.068409
  -0.076741
  -0.085337
  -0.093586
  -0.101085
  -0.107684
  -0.113367
  -0.118226
  -0.122072
  -0.124654
  -0.181262
  -0.181775
  -0.183245
  -0.185847
  -0.190072
  -0.194682
  -0.198886
  -0.204752
  -0.212731
  -0.220122
  -0.226224
  -0.232226
  -0.238444
  -0.244249
  -0.249299
  -0.252934
  -0.255160
  -0.256343
  -0.256489
  -0.255165
  -0.329867
  -0.330402
  -0.331698
  -0.333925
  -0.337707
  -0.341832
  -0.345289
  -0.349680
  -0.355762
  -0.361613
  -0.366127
  -0.370367
  -0.374683
  -0.378399
  -0.381051
  -0.381955
  -0.381188
  -0.379221
  -0.376068
  -0.371296
  -0.458522
  -0.458978
  -0.460158
  -0.462166
  -0.465223
  -0.468650
  -0.471808
  -0.475271
  -0.479370
  -0.483317
  -0.486449
  -0.489434
  -0.492217
  -0.493977
  -0.494270
  -0.492822
  -0.489843
  -0.485473
  -0.479542
  -0.471870
  -0.566035
  -0.566384
  -0.567519
  -0.569396
  -0.571556
  -0.574046
  -0.576954
  -0.580054
  -0.583040
  -0.585766
  -0.588006
  -0.589760
  -0.590664
  -0.590308
  -0.588586
  -0.585449
  -0.580865
  -0.574639
  -0.566598
  -0.556724
  -0.652920
  -0.653242
  -0.654332
  -0.655931
  -0.657357
  -0.659175
  -0.661693
  -0.664317
  -0.666526
  -0.668517
  -0.670127
  -0.670696
  -0.669942
  -0.668077
  -0.665143
  -0.660910
  -0.655017
  -0.647334
  -0.637836
  -0.626466
  -0.720807
  -0.721142
  -0.722106
  -0.723311
  -0.724336
  -0.725833
  -0.727822
  -0.729708
  -0.731074
  -0.732239
  -0.733107
  -0.732967
  -0.731543
  -0.729113
  -0.725517
  -0.720415
  -0.713580
  -0.704984
  -0.694554
  -0.682202
  -0.771940
  -0.772202
  -0.772972
  -0.773959
  -0.774959
  -0.776297
  -0.777721
  -0.778951
  -0.779772
  -0.780185
  -0.780166
  -0.779524
  -0.777928
  -0.775228
  -0.771145
  -0.765464
  -0.758146
  -0.749123
  -0.738206
  -0.725276
  -0.808685
  -0.808856
  -0.809358
  -0.810198
  -0.811261
  -0.812446
  -0.813470
  -0.814324
  -0.814935
  -0.815084
  -0.814594
  -0.813537
  -0.811649
  -0.808555
  -0.804106
  -0.798179
  -0.790661
  -0.781420
  -0.770273
  -0.757059
  -0.833207
  -0.833343
  -0.833684
  -0.834361
  -0.835295
  -0.836223
  -0.837027
  -0.837766
  -0.838313
  -0.838451
  -0.837879
  -0.836525
  -0.834272
  -0.830893
  -0.826290
  -0.820305
  -0.812724
  -0.803371
  -0.792106
  -0.778783
  -0.847200
  -0.847324
  -0.847662
  -0.848266
  -0.849045
  -0.849814
  -0.850540
  -0.851196
  -0.851603
  -0.851584
  -0.850914
  -0.849440
  -0.847067
  -0.843651
  -0.839022
  -0.833001
  -0.825407
  -0.816047
  -0.804767
  -0.791409
  0.847063
  0.862426
  0.937551
  0.925992
  0.876471
  0.947665
  0.889239
  0.956432
  0.900757
  0.963980
  0.911115
  0.970416
  0.920383
  0.975854
  0.928570
  0.980403
  0.935762
  0.984176
  0.942077
  0.987268
  0.947556
  0.989776
  0.952197
  0.991786
  0.956149
  0.993379
  0.959506
  0.994618
  0.962217
  0.995566
  0.964348
  0.996272
  0.965972
  0.996778
  0.967092
  0.997119
  0.967727
  0.997312
  0.742265
  0.759897
  0.776486
  0.792000
  0.806468
  0.819853
  0.832176
  0.843301
  0.853355
  0.862448
  0.870580
  0.877678
  0.883889
  0.889325
  0.893765
  0.897274
  0.899971
  0.901813
  0.902845
  0.615959
  0.634136
  0.651643
  0.668420
  0.684428
  0.699609
  0.713842
  0.727021
  0.739191
  0.750222
  0.760277
  0.769438
  0.777509
  0.784521
  0.790347
  0.795079
  0.798653
  0.801118
  0.802488
  0.473910
  0.490954
  0.507748
  0.524199
  0.540270
  0.555877
  0.570769
  0.584825
  0.598110
  0.610240
  0.621395
  0.631808
  0.641076
  0.649048
  0.655828
  0.661500
  0.665725
  0.668591
  0.670222
  0.322598
  0.337120
  0.351795
  0.366505
  0.381315
  0.396041
  0.410397
  0.424161
  0.437218
  0.449554
  0.461090
  0.471900
  0.481568
  0.489921
  0.497144
  0.503365
  0.508022
  0.511096
  0.512847
  0.168588
  0.179518
  0.191028
  0.203079
  0.215539
  0.228193
  0.240815
  0.253525
  0.265740
  0.277584
  0.288474
  0.298500
  0.307718
  0.316193
  0.323543
  0.329765
  0.334475
  0.337626
  0.339440
  0.017840
  0.024648
  0.032381
  0.041061
  0.050410
  0.060540
  0.070760
  0.081333
  0.091623
  0.102192
  0.112168
  0.121088
  0.129257
  0.137495
  0.144931
  0.150549
  0.154835
  0.158076
  0.159929
  -0.124655
  -0.122065
  -0.118204
  -0.113156
  -0.107441
  -0.100172
  -0.092189
  -0.084314
  -0.077270
  -0.069724
  -0.061127
  -0.052393
  -0.044743
  -0.037082
  -0.029906
  -0.025027
  -0.021390
  -0.018198
  -0.016355
  -0.255165
  -0.256547
  -0.256370
  -0.254731
  -0.252405
  -0.248402
  -0.242810
  -0.237336
  -0.233184
  -0.229161
  -0.222698
  -0.213906
  -0.206084
  -0.199549
  -0.193695
  -0.189579
  -0.186382
  -0.183387
  -0.181618
  -0.371295
  -0.376154
  -0.379271
  -0.380701
  -0.381089
  -0.380043
  -0.377181
  -0.373784
  -0.370874
  -0.368550
  -0.364445
  -0.357246
  -0.350247
  -0.345160
  -0.340948
  -0.337379
  -0.334367
  -0.331794
  -0.330257
  -0.471870
  -0.479508
  -0.485339
  -0.489492
  -0.492096
  -0.493321
  -0.493103
  -0.491962
  -0.489638
  -0.487123
  -0.484486
  -0.480175
  -0.475311
  -0.471383
  -0.468059
  -0.464906
  -0.462297
  -0.460304
  -0.459001
  -0.556724
  -0.566494
  -0.574369
  -0.580555
  -0.584963
  -0.587830
  -0.589293
  -0.589924
  -0.589056
  -0.587220
  -0.585552
  -0.583248
  -0.580065
  -0.576773
  -0.573773
  -0.571175
  -0.569249
  -0.567754
  -0.566586
  -0.626466
  -0.637821
  -0.647181
  -0.654666
  -0.660418
  -0.664651
  -0.667179
  -0.668690
  -0.669448
  -0.669333
  -0.668377
  -0.666630
  -0.664339
  -0.661811
  -0.659219
  -0.657041
  -0.655609
  -0.654439
  -0.653421
  -0.682202
  -0.694569
  -0.704882
  -0.713231
  -0.719865
  -0.725062
  -0.728605
  -0.730753
  -0.732070
  -0.732529
  -0.731873
  -0.730756
  -0.729579
  -0.728064
  -0.726019
  -0.724189
  -0.723049
  -0.722063
  -0.721208
  -0.725276
  -0.738188
  -0.749048
  -0.758018
  -0.765212
  -0.770818
  -0.775078
  -0.778007
  -0.779505
  -0.779780
  -0.779452
  -0.779168
  -0.778688
  -0.777672
  -0.776168
  -0.774824
  -0.773881
  -0.772992
  -0.772273
  -0.757058
  -0.770259
  -0.781409
  -0.790655
  -0.798099
  -0.803868
  -0.808310
  -0.811604
  -0.813660
  -0.814635
  -0.814978
  -0.814854
  -0.814189
  -0.813204
  -0.812183
  -0.811246
  -0.810295
  -0.809442
  -0.808934
  -0.778783
  -0.792107
  -0.803367
  -0.812682
  -0.820248
  -0.826231
  -0.830751
  -0.833952
  -0.836229
  -0.837799
  -0.838552
  -0.838436
  -0.837797
  -0.837024
  -0.836308
  -0.835489
  -0.834489
  -0.833697
  -0.833353
  -0.791410
  -0.804770
  -0.816036
  -0.825375
  -0.832985
  -0.839042
  -0.843664
  -0.846971
  -0.849262
  -0.850751
  -0.851487
  -0.851568
  -0.851217
  -0.850624
  -0.849921
  -0.849122
  -0.848299
  -0.847664
  -0.847325
  -0.795550
  -0.808922
  -0.820200
  -0.829555
  -0.837159
  -0.843188
  -0.847818
  -0.851222
  -0.853569
  -0.855022
  -0.855742
  -0.855885
  -0.855600
  -0.855026
  -0.854294
  -0.853520
  -0.852807
  -0.852237
  -0.851869
  -0.791410
  -0.804770
  -0.778782
  -0.792104
  -0.757059
  -0.770273
  -0.725276
  -0.738193
  -0.682202
  -0.694520
  -0.626466
  -0.637821
  -0.556723
  -0.566594
  -0.471869
  -0.479554
  -0.371295
  -0.376096
  -0.255164
  -0.256462
  -0.124653
  -0.122006
  0.017841
  0.024694
  0.168589
  0.179549
  0.322598
  0.337136
  0.473911
  0.490968
  0.615960
  0.634152
  0.742265
  0.759903
  0.847063
  0.862425
  0.925993
  0.937550
  -0.816048
  -0.803347
  -0.781407
  -0.749072
  -0.704853
  -0.647222
  -0.574543
  -0.485399
  -0.379207
  -0.256270
  -0.118091
  0.032531
  0.191149
  0.351891
  0.507820
  0.651678
  0.776502
  0.876474
  0.947665
  -0.825407
  -0.812670
  -0.790627
  -0.758065
  -0.713320
  -0.654751
  -0.580646
  -0.489613
  -0.381015
  -0.255004
  -0.113144
  0.041272
  0.203293
  0.366714
  0.524335
  0.668475
  0.792027
  0.889239
  0.956432
  -0.833003
  -0.820244
  -0.798101
  -0.765280
  -0.719983
  -0.660488
  -0.585036
  -0.492253
  -0.381315
  -0.252372
  -0.107164
  0.050640
  0.215719
  0.381524
  0.540427
  0.684495
  0.806478
  0.900759
  0.963980
  -0.839011
  -0.826243
  -0.803968
  -0.770821
  -0.725076
  -0.664830
  -0.588040
  -0.493274
  -0.379708
  -0.247986
  -0.100042
  0.060511
  0.228308
  0.396157
  0.555963
  0.699636
  0.819860
  0.911127
  0.970416
  -0.843616
  -0.830783
  -0.808388
  -0.774917
  -0.728671
  -0.667616
  -0.589483
  -0.492895
  -0.376955
  -0.242624
  -0.092215
  0.070705
  0.240873
  0.410455
  0.570928
  0.713898
  0.832156
  0.920376
  0.975855
  -0.847016
  -0.834037
  -0.811526
  -0.777882
  -0.731106
  -0.669019
  -0.589584
  -0.491754
  -0.374341
  -0.237743
  -0.084461
  0.081184
  0.253387
  0.424187
  0.585034
  0.727118
  0.843330
  0.928571
  0.980405
  -0.849382
  -0.836278
  -0.813473
  -0.779594
  -0.732418
  -0.669396
  -0.588790
  -0.489898
  -0.371421
  -0.233011
  -0.076846
  0.091870
  0.265854
  0.437205
  0.598117
  0.739337
  0.853550
  0.935814
  0.984177
  -0.850877
  -0.837757
  -0.814435
  -0.780077
  -0.732721
  -0.669233
  -0.587591
  -0.486870
  -0.366454
  -0.226661
  -0.068817
  0.102286
  0.277775
  0.449425
  0.610106
  0.750483
  0.862734
  0.942139
  0.987269
  -0.851608
  -0.838443
  -0.814746
  -0.780033
  -0.732368
  -0.668209
  -0.585473
  -0.482761
  -0.360015
  -0.218761
  -0.060037
  0.112167
  0.288715
  0.460976
  0.621312
  0.760560
  0.870805
  0.947578
  0.989777
  -0.851669
  -0.838323
  -0.814628
  -0.779814
  -0.731335
  -0.666012
  -0.582483
  -0.479032
  -0.354944
  -0.211798
  -0.051616
  0.121245
  0.298623
  0.471713
  0.631714
  0.769604
  0.877848
  0.952217
  0.991788
  -0.851279
  -0.837782
  -0.814170
  -0.779032
  -0.729595
  -0.663596
  -0.579794
  -0.476084
  -0.351164
  -0.206042
  -0.044005
  0.129729
  0.307773
  0.481385
  0.640975
  0.777555
  0.884007
  0.956182
  0.993380
  -0.850644
  -0.837095
  -0.813365
  -0.777665
  -0.727670
  -0.661550
  -0.577172
  -0.472422
  -0.346531
  -0.200160
  -0.036853
  0.137710
  0.316219
  0.489862
  0.648974
  0.784450
  0.889308
  0.959507
  0.994618
  -0.849867
  -0.836238
  -0.812230
  -0.776156
  -0.726027
  -0.659621
  -0.574179
  -0.468038
  -0.341191
  -0.194354
  -0.030552
  0.144619
  0.323562
  0.497242
  0.655865
  0.790337
  0.893745
  0.962221
  0.995566
  -0.849078
  -0.835349
  -0.811104
  -0.774858
  -0.724548
  -0.657604
  -0.571484
  -0.464614
  -0.336924
  -0.189491
  -0.025260
  0.150349
  0.329653
  0.503270
  0.661405
  0.795029
  0.897252
  0.964356
  0.996272
  -0.848361
  -0.834523
  -0.810160
  -0.773789
  -0.723097
  -0.655578
  -0.569219
  -0.462254
  -0.334031
  -0.185882
  -0.021086
  0.154882
  0.334333
  0.507839
  0.665587
  0.798585
  0.899931
  0.965974
  0.996778
  -0.847735
  -0.833796
  -0.809446
  -0.772960
  -0.721922
  -0.654040
  -0.567430
  -0.460352
  -0.331959
  -0.183434
  -0.018182
  0.158104
  0.337645
  0.511096
  0.668577
  0.801111
  0.901799
  0.967094
  0.997118
  -0.847319
  -0.833330
  -0.808926
  -0.772307
  -0.721180
  -0.653249
  -0.566420
  -0.459042
  -0.330484
  -0.181844
  -0.016465
  0.159940
  0.339514
  0.512912
  0.670243
  0.802492
  0.902845
  0.967729
  0.997313
  0.181110
  0.182357
  0.257388
  0.256097
  0.186110
  0.261651
  0.192380
  0.268944
  0.201192
  0.279202
  0.212582
  0.292297
  0.226587
  0.308211
  0.243250
  0.327015
  0.262607
  0.348823
  0.284693
  0.373596
  0.309528
  0.401297
  0.337115
  0.431753
  0.367436
  0.464803
  0.400431
  0.500259
  0.436007
  0.537914
  0.474009
  0.577479
  0.514233
  0.618566
  0.556386
  0.660795
  0.600130
  0.703624
  0.644987
  0.746439
  0.690449
  0.788569
  0.735853
  0.829275
  0.780488
  0.867714
  0.823528
  0.902986
  0.864072
  0.934202
  0.901164
  0.960387
  0.933795
  0.980616
  0.960963
  0.994040
  0.981657
  0.999823
  0.994946
  0.997273
  0.999976
  0.985798
  0.996037
  0.965065
  0.982584
  0.934919
  0.959276
  0.895463
  0.366307
  0.365122
  0.370802
  0.378767
  0.389964
  0.403966
  0.420653
  0.440260
  0.463011
  0.488883
  0.517625
  0.548889
  0.582357
  0.617719
  0.654584
  0.692611
  0.731269
  0.770043
  0.808233
  0.845145
  0.880000
  0.912038
  0.940397
  0.964139
  0.982539
  0.994702
  0.999824
  0.997320
  0.986623
  0.967263
  0.939060
  0.902084
  0.856560
  0.803030
  0.500405
  0.499492
  0.504591
  0.512289
  0.523378
  0.537405
  0.554083
  0.573498
  0.595770
  0.620815
  0.648269
  0.677730
  0.708758
  0.740969
  0.773849
  0.806891
  0.839578
  0.871224
  0.901045
  0.928332
  0.952313
  0.972212
  0.987237
  0.996612
  0.999789
  0.996016
  0.984669
  0.965554
  0.938366
  0.902904
  0.859375
  0.808173
  0.749947
  0.685535
  0.646445
  0.645728
  0.649990
  0.656765
  0.666957
  0.680221
  0.695916
  0.713699
  0.733513
  0.755288
  0.778753
  0.803536
  0.829173
  0.855125
  0.880801
  0.905602
  0.928959
  0.950180
  0.968478
  0.983172
  0.993590
  0.998959
  0.998663
  0.992228
  0.979260
  0.959160
  0.931650
  0.896927
  0.854888
  0.805501
  0.749381
  0.687195
  0.619857
  0.548378
  0.786769
  0.786383
  0.789256
  0.794777
  0.803785
  0.815565
  0.828930
  0.843214
  0.858380
  0.874511
  0.891523
  0.909099
  0.926769
  0.943874
  0.959727
  0.973713
  0.985269
  0.993761
  0.998517
  0.998960
  0.994513
  0.984501
  0.968544
  0.946473
  0.918051
  0.882932
  0.841300
  0.793429
  0.739338
  0.679354
  0.614390
  0.545176
  0.472741
  0.398175
  0.902618
  0.902481
  0.904425
  0.908670
  0.915534