# vtk DataFile Version 2.0

ASCII

DATASET UNSTRUCTURED_GRID
POINTS 6689 double
  -0.000000  0.412952  0.626076
  -0.021006  0.412816  0.625814
  -0.020666  0.432849  0.612139
  -0.000000  0.433013  0.612372
  -0.042003  0.412361  0.625056
  -0.041316  0.432356  0.611442
  -0.062972  0.411585  0.623805
  -0.061935  0.431533  0.610281
  -0.083898  0.410490  0.622061
  -0.082506  0.430384  0.608656
  -0.104761  0.409077  0.619824
  -0.103015  0.428909  0.606568
  -0.125545  0.407347  0.617096
  -0.123446  0.427107  0.604020
  -0.146232  0.405300  0.613879
  -0.143783  0.424982  0.601014
  -0.166806  0.402939  0.610178
  -0.164011  0.422532  0.597551
  -0.187248  0.400266  0.605991
  -0.184115  0.419763  0.593634
  -0.207543  0.397281  0.601326
  -0.204078  0.416675  0.589266
  -0.227671  0.393990  0.596186
  -0.223886  0.413270  0.584451
  -0.247620  0.390393  0.590574
  -0.243525  0.409551  0.579192
  -0.267370  0.386493  0.584496
  -0.262979  0.405522  0.573493
  -0.286907  0.382296  0.577958
  -0.282232  0.401184  0.567360
  -0.306211  0.377802  0.570963
  -0.301272  0.396541  0.560794
  -0.325272  0.373019  0.563520
  -0.320082  0.391597  0.553803
  -0.344070  0.367947  0.555636
  -0.338650  0.386358  0.546392
  -0.362592  0.362592  0.547314
  -0.356961  0.380823  0.538566
  -0.380823  0.356961  0.538566
  -0.375000  0.375000  0.530330
  -0.000000  0.392459  0.639122
  -0.021331  0.392344  0.638835
  -0.042658  0.391921  0.638026
  -0.063963  0.391191  0.636693
  -0.085225  0.390150  0.634839
  -0.106425  0.388802  0.632462
  -0.127546  0.387144  0.629563
  -0.148567  0.385182  0.626150
  -0.169468  0.382914  0.622219
  -0.190234  0.380344  0.617778
  -0.210843  0.377474  0.612828
  -0.231277  0.374306  0.607376
  -0.251520  0.370842  0.601426
  -0.271551  0.367088  0.594984
  -0.291355  0.363043  0.588057
  -0.310912  0.358716  0.580651
  -0.330209  0.354108  0.572774
  -0.349225  0.349225  0.564432
  -0.367947  0.344070  0.555636
  -0.386358  0.338650  0.546392
  -0.000000  0.371552  0.651498
  -0.021640  0.371455  0.651193
  -0.043282  0.371063  0.650337
  -0.064904  0.370372  0.648931
  -0.086486  0.369386  0.646974
  -0.108007  0.368102  0.644466
  -0.129447  0.366522  0.641409
  -0.150784  0.364647  0.637806
  -0.171997  0.362480  0.633660
  -0.193068  0.360019  0.628976
  -0.213975  0.357272  0.623756
  -0.234699  0.354237  0.618008
  -0.255219  0.350919  0.611734
  -0.275517  0.347322  0.604946
  -0.295572  0.343448  0.597646
  -0.315369  0.339302  0.589845
  -0.334887  0.334887  0.581551
  -0.354108  0.330209  0.572774
  -0.373019  0.325272  0.563520
  -0.391597  0.320082  0.553803
  -0.000000  0.350256  0.663189
  -0.021933  0.350172  0.662871
  -0.043873  0.349804  0.661976
  -0.065796  0.349154  0.660501
  -0.087681  0.348219  0.658449
  -0.109505  0.347001  0.655819
  -0.131245  0.345500  0.652614
  -0.152882  0.343718  0.648834
  -0.174389  0.341655  0.644486
  -0.195747  0.339313  0.639570
  -0.216936  0.336696  0.634094
  -0.237930  0.333806  0.628063
  -0.258713  0.330644  0.621484
  -0.279261  0.327216  0.614364
  -0.299555  0.323524  0.606712
  -0.319573  0.319573  0.598536
  -0.339302  0.315369  0.589845
  -0.358716  0.310912  0.580651
  -0.377802  0.306211  0.570963
  -0.396541  0.301272  0.560794
  -0.000000  0.328593  0.674185
  -0.022210  0.328516  0.673857
  -0.044430  0.328172  0.672925
  -0.066637  0.327558  0.671391
  -0.088807  0.326674  0.669250
  -0.110915  0.325524  0.666507
  -0.132939  0.324103  0.663162
  -0.154855  0.322418  0.659217
  -0.176639  0.320464  0.654676
  -0.198268  0.318248  0.649545
  -0.219718  0.315770  0.643827
  -0.240969  0.313032  0.637530
  -0.261996  0.310038  0.630663
  -0.282778  0.306790  0.623231
  -0.303295  0.303295  0.615243
  -0.323524  0.299555  0.606712
  -0.343448  0.295572  0.597646
  -0.363043  0.291355  0.588057
  -0.382296  0.286907  0.577958
  -0.401184  0.282232  0.567360
  -0.000000  0.306585  0.684474
  -0.022471  0.306511  0.684138
  -0.044955  0.306186  0.683175
  -0.067427  0.305609  0.681584
  -0.089863  0.304778  0.679364
  -0.112238  0.303693  0.676515
  -0.134527  0.302358  0.673040
  -0.156703  0.300770  0.668940
  -0.178745  0.298932  0.664221
  -0.200627  0.296845  0.658887
  -0.222323  0.294515  0.652942
  -0.243810  0.291937  0.646397
  -0.265065  0.289121  0.639257
  -0.286067  0.286067  0.631531
  -0.306790  0.282778  0.623231
  -0.327216  0.279261  0.614364
  -0.347322  0.275517  0.604946
  -0.367088  0.271551  0.594984
  -0.386493  0.267370  0.584496
  -0.405522  0.262979  0.573493
  -0.000000  0.284256  0.694046
  -0.022714  0.284183  0.693704
  -0.045445  0.283874  0.692712
  -0.068165  0.283330  0.691070
  -0.090849  0.282551  0.688775
  -0.113471  0.281536  0.685828
  -0.136005  0.280285  0.682233
  -0.158425  0.278801  0.677991
  -0.180705  0.277083  0.673106
  -0.202819  0.275133  0.667582
  -0.224742  0.272955  0.661428
  -0.246450  0.270547  0.654649
  -0.267918  0.267918  0.647256
  -0.289121  0.265065  0.639257
  -0.310038  0.261996  0.630663
  -0.330644  0.258713  0.621484
  -0.350919  0.255219  0.611734
  -0.370842  0.251520  0.601426
  -0.390393  0.247620  0.590574
  -0.409551  0.243525  0.579192
  -0.000000  0.261628  0.702888
  -0.022942  0.261552  0.702542
  -0.045901  0.261259  0.701524
  -0.068850  0.260749  0.699836
  -0.091764  0.260022  0.697473
  -0.114614  0.259077  0.694437
  -0.137374  0.257915  0.690730
  -0.160017  0.256536  0.686355
  -0.182515  0.254943  0.681316
  -0.204844  0.253134  0.675620
  -0.226977  0.251115  0.669270
  -0.248886  0.248886  0.662277
  -0.270547  0.246450  0.654649
  -0.291937  0.243810  0.646397
  -0.313032  0.240969  0.637530
  -0.333806  0.237930  0.628063
  -0.354237  0.234699  0.618008
  -0.374306  0.231277  0.607376
  -0.393990  0.227671  0.596186
  -0.413270  0.223886  0.584451
  -0.000000  0.238725  0.710993
  -0.023152  0.238645  0.710643
  -0.046322  0.238366  0.709602
  -0.069482  0.237890  0.707871
  -0.092606  0.237216  0.705446
  -0.115665  0.236342  0.702327
  -0.138631  0.235270  0.698519
  -0.161478  0.234002  0.694023
  -0.184176  0.232536  0.688843
  -0.206700  0.230876  0.682987
  -0.229022  0.229022  0.676459
  -0.251115  0.226977  0.669270
  -0.272955  0.224742  0.661428
  -0.294515  0.222323  0.652942
  -0.315770  0.219718  0.643827
  -0.336696  0.216936  0.634094
  -0.357272  0.213975  0.623756
  -0.377474  0.210843  0.612828
  -0.397281  0.207543  0.601326
  -0.416675  0.204078  0.589266
  0.000000  0.215573  0.718352
  -0.023345  0.215487  0.717998
  -0.046707  0.215223  0.716937
  -0.070060  0.214781  0.715166
  -0.093374  0.214160  0.712683
  -0.116622  0.213360  0.709491
  -0.139775  0.212380  0.705589
  -0.162805  0.211226  0.700985
  -0.185684  0.209892  0.695677
  -0.208383  0.208383  0.689676
  -0.230876  0.206700  0.682987
  -0.253134  0.204844  0.675620
  -0.275133  0.202819  0.667582
  -0.296845  0.200627  0.658887
  -0.318248  0.198268  0.649545
  -0.339313  0.195747  0.639570
  -0.360019  0.193068  0.628976
  -0.380344  0.190234  0.617778
  -0.400266  0.187248  0.605991
  -0.419763  0.184115  0.593634
  0.000000  0.192193  0.724956
  -0.023520  0.192102  0.724599
  -0.047057  0.191853  0.723518
  -0.070583  0.191446  0.721710
  -0.094069  0.190881  0.719176
  -0.117486  0.190157  0.715917
  -0.140805  0.189274  0.711933
  -0.163998  0.188233  0.707229
  -0.187036  0.187036  0.701808
  -0.209892  0.185684  0.695677
  -0.232536  0.184176  0.688843
  -0.254943  0.182515  0.681316
  -0.277083  0.180705  0.673106
  -0.298932  0.178745  0.664221
  -0.320464  0.176639  0.654676
  -0.341655  0.174389  0.644486
  -0.362480  0.171997  0.633660
  -0.382914  0.169468  0.622219
  -0.402939  0.166806  0.610178
  -0.422532  0.164011  0.597551
  0.000000  0.168613  0.730800
  -0.023678  0.168517  0.730438
  -0.047371  0.168285  0.729339
  -0.071051  0.167914  0.727500
  -0.094689  0.167406  0.724920
  -0.118254  0.166761  0.721601
  -0.141720  0.165976  0.717543
  -0.165055  0.165055  0.712751
  -0.188233  0.163998  0.707229
  -0.211226  0.162805  0.700985
  -0.234002  0.161478  0.694023
  -0.256536  0.160017  0.686355
  -0.278801  0.158425  0.677991
  -0.300770  0.156703  0.668940
  -0.322418  0.154855  0.659217
  -0.343718  0.152882  0.648834
  -0.364647  0.150784  0.637806
  -0.385182  0.148567  0.626150
  -0.405300  0.146232  0.613879
  -0.424982  0.143783  0.601014
  0.000000  0.144855  0.735879
  -0.023819  0.144758  0.735512
  -0.047650  0.144545  0.734395
  -0.071464  0.144214  0.732526
  -0.095233  0.143766  0.729906
  -0.118928  0.143201  0.726533
  -0.142518  0.142518  0.722411
  -0.165976  0.141720  0.717543
  -0.189274  0.140805  0.711933
  -0.212380  0.139775  0.705589
  -0.235270  0.138631  0.698519
  -0.257915  0.137374  0.690730
  -0.280285  0.136005  0.682233
  -0.302358  0.134527  0.673040
  -0.324103  0.132939  0.663162
  -0.345500  0.131245  0.652614
  -0.366522  0.129447  0.641409
  -0.387144  0.127546  0.629563
  -0.407347  0.125545  0.617096
  -0.427107  0.123446  0.604020
  0.000000  0.120946  0.740184
  -0.023942  0.120850  0.739812
  -0.047892  0.120659  0.738679
  -0.071822  0.120370  0.736785
  -0.095702  0.119986  0.734128
  -0.119505  0.119505  0.730710
  -0.143201  0.118928  0.726533
  -0.166761  0.118254  0.721601
  -0.190157  0.117486  0.715917
  -0.213360  0.116622  0.709491
  -0.236342  0.115665  0.702327
  -0.259077  0.114614  0.694437
  -0.281536  0.113471  0.685828
  -0.303693  0.112238  0.676515
  -0.325524  0.110915  0.666507
  -0.347001  0.109505  0.655819
  -0.368102  0.108007  0.644466
  -0.388802  0.106425  0.632462
  -0.409077  0.104761  0.619824
  -0.428909  0.103015  0.606568
  0.000000  0.096909  0.743712
  -0.024047  0.096820  0.743336
  -0.048098  0.096654  0.742189
  -0.072123  0.096413  0.740272
  -0.096096  0.096096  0.737585
  -0.119986  0.095702  0.734128
  -0.143766  0.095233  0.729906
  -0.167406  0.094689  0.724920
  -0.190881  0.094069  0.719176
  -0.214160  0.093374  0.712683
[...]
POINT_DATA 6689
SCALARS DataInterp double
LOOKUP_TABLE default
  9.191078
  9.195231
  9.208590
  9.204450
  9.207895
  9.221217
  9.229727
  9.242941
  9.261795
  9.274724
  9.305449
  9.317797
  9.362183
  9.373534
  9.433443
  9.443277
  9.520489
  9.528131
  9.623974
  9.628706
  9.743580
  9.744836
  9.878006
  9.875347
  10.024716
  10.017841
  10.179565
  10.168588
  10.337117
  10.322598
  10.490949
  10.473911
  10.634146
  10.615958
  10.759899
  10.742265
  10.862427
  10.847063
  10.937551
  10.925992
  9.179799
  9.183960
  9.196633
  9.218574
  9.250927
  9.295112
  9.352796
  9.425522
  9.514705
  9.621014
  9.743886
  9.881941
  10.032485
  10.191073
  10.351799
  10.507761
  10.651663
  10.776489
  10.876473
  10.947665
  9.170444
  9.174607
  9.187299
  9.209349
  9.241956
  9.286625
  9.345244
  9.419400
  9.510459
  9.619196
  9.745200
  9.886940
  10.041161
  10.203111
  10.366562
  10.524224
  10.668423
  10.792005
  10.889236
  10.956432
  9.162842
  9.166998
  9.179746
  9.201896
  9.234729
  9.279935
  9.339520
  9.414999
  9.507621
  9.618404
  9.747332
  9.892679
  10.050460
  10.215510
  10.381303
  10.540216
  10.684377
  10.806438
  10.900755
  10.963980
  9.156812
  9.160985
  9.173782
  9.195987
  9.229125
  9.274950
  9.335311
  9.411943
  9.506488
  9.619779
  9.751400
  9.899552
  10.060201
  10.228032
  10.395830
  10.555687
  10.699463
  10.819773
  10.911110
  10.970415
  9.152181
  9.156373
  9.169204
  9.191563
  9.225100
  9.271463
  9.332432
  9.410282
  9.507168
  9.623315
  9.757425
  9.907571
  10.070346
  10.240489
  10.409966
  10.570516
  10.713638
  10.832062
  10.920356
  10.975853
  9.148778
  9.152972
  9.165859
  9.188461
  9.222282
  9.268985
  9.330767
  9.410045
  9.508535
  9.626281
  9.762495
  9.915330
  10.080856
  10.253078
  10.423789
  10.584615
  10.726843
  10.843255
  10.928543
  10.980404
  9.146432
  9.150681
  9.163633
  9.186417
  9.220531
  9.267688
  9.330493
  9.411003
  9.510037
  9.628382
  9.766772
  9.922954
  10.091363
  10.265284
  10.436977
  10.597898
  10.739092
  10.853418
  10.935749
  10.984177
  9.144978
  9.149301
  9.162290
  9.185205
  9.219688
  9.267305
  9.330960
  9.412765
  9.513052
  9.632910
  9.773377
  9.931676
  10.101802
  10.277011
  10.449540
  10.610276
  10.750351
  10.862575
  10.942049
  10.987271
  9.144258
  9.148614
  9.161723
  9.184905
  9.219708
  9.267603
  9.331901
  9.415290
  9.517927
  9.640083
  9.781884
  9.940780
  10.111716
  10.287980
  10.461161
  10.621555
  10.760514
  10.870707
  10.947510
  10.989779
  9.144115
  9.148457
  9.161738
  9.185161
  9.220210
  9.268596
  9.333408
  9.417593
  9.521801
  9.645808
  9.788864
  9.948798
  10.120978
  10.298309
  10.471896
  10.631880
  10.769642
  10.877857
  10.952198
  10.991788
  9.144400
  9.148720
  9.162127
  9.185745
  9.221220
  9.270541
  9.335874
  9.419872
  9.524201
  9.649228
  9.793995
  9.955917
  10.129723
  10.307854
  10.481561
  10.641070
  10.777623
  10.884068
  10.956191
  10.993381
  9.144975
  9.149290
  9.162780
  9.186635
  9.222525
  9.272523
  9.338457
  9.422733
  9.527400
  9.653400
  9.799757
  9.963127
  10.137800
  10.316304
  10.489957
  10.649035
  10.784508
  10.889347
  10.959515
  10.994618
  9.145707
  9.150091
  9.163737
  9.187793
  9.223766
  9.273873
  9.340455
  9.425875
  9.531767
  9.658892
  9.806061
  9.969806
  10.144772
  10.323536
  10.497181
  10.655816
  10.790325
  10.893732
  10.962216
  10.995567
  9.146479
  9.150958
  9.164780
  9.188953
  9.224954
  9.275219
  9.342382
  9.428675
  9.535422
  9.663091
  9.810598
  9.974799
  10.150395
  10.329634
  10.503232
  10.661371
  10.795015
  10.897241
  10.964353
  10.996272
  9.147193
  9.151637
  9.165428
  9.189757
  9.226149
  9.276906
  9.344436
  9.430865
  9.537772
  9.665715
  9.813710
  9.978643
  10.154864
  10.334420
  10.507960
  10.665673
  10.798612
  10.899937
  10.965971
  10.996778
  9.147763
  9.152161
  9.165908
  9.190431
  9.227234
  9.278288
  9.345928
  9.432467
  9.539696
  9.668149
  9.816636
  9.981872
  10.158149
  10.337657
  10.511108
  10.668591
  10.801110
  10.901800
  10.967090
  10.997118
  9.148131
  9.152615
  9.166506
  9.191061
  9.227871
  9.278946
  9.346703
  9.433501
  9.541046
  9.669773
  9.818422
  9.983687
  10.159957
  10.339441
  10.512822
  10.670186
  10.802469
  10.902843
  10.967730
  10.997313
  9.148257
  9.152800
  9.166793
  9.191315
  9.228061
  9.279193
  9.347081
  9.433966
  9.541477
  9.670133
  9.818739
  9.984015
  10.160314
  10.339820
  10.513174
  10.670495
  10.802748
  10.903087
  10.967905
  10.997376
  10.967905
  10.967729
  10.997312
  10.997375
  10.967083
  10.997118
  10.965956
  10.996778
  10.964345
  10.996272
  10.962215
  10.995566
  10.959504
  10.994618
  10.956169
  10.993379
  10.952214
  10.991788
  10.947598
  10.989778
  10.942121
  10.987269
  10.935746
  10.984176
  10.928526
  10.980404
  10.920363
  10.975853
  10.911118
  10.970414
  10.900747
  10.963979
  10.889231
  10.956432
  10.876474
  10.947664
  10.862427
  10.937551
  10.847064
  10.925992
  10.903086
  10.902834
  10.901768
  10.899926
  10.897234
  10.893684
  10.889296
  10.884060
  10.877911
  10.870849
  10.862697
  10.853466
  10.843300
  10.832128
  10.819817
  10.806446
  10.792000
  10.776484
  10.759895
  10.742265
  10.802747
  10.802452
  10.801069
  10.798627
  10.795009
  10.790273
  10.784497
  10.777654
  10.769577
  10.760404
  10.750320
  10.739225
  10.726998
  10.713692
  10.699488
  10.684402
  10.668414
  10.651639
  10.634139
  10.615959
  10.670495
  10.670193
  10.668558
  10.665665
  10.661417
  10.655933
  10.649137
  10.641162
  10.631835
  10.621345
  10.610033
  10.597848
  10.584602
  10.570445
  10.555672
  10.540195
  10.524189
  10.507741
  10.490952
  10.473911
  10.513174
  10.512877
  10.511092
  10.507923
  10.503385
  10.497515
  10.490098
  10.481565
  10.471873
  10.461125
  10.449346
  10.436732
  10.423544
  10.409754
  10.395648
  10.381131
  10.366494
  10.351771
  10.337112
  10.322598
  10.339820
  10.339513
  10.337680
  10.334447
  10.329811
  10.323876
  10.316565
  10.308081
  10.298624
  10.288405
  10.276978
  10.264764
  10.252525
  10.240082
  10.227670
  10.215225
  10.203001
  10.191035
  10.179543
  10.168588
  10.160314
  10.159971
  10.158231
  10.155033
  10.150314
  10.144645
  10.138156
  10.130276
  10.121159
  10.111824
  10.101718
  10.090988
  10.080291
  10.069747
  10.059715
  10.050075
  10.040949
  10.032407
  10.024667
  10.017841
  9.984016
  9.983591
  9.982006
  9.979033
  9.974472
  9.969334
  9.963996
  9.956871
  9.948012
  9.939640
  9.931646
  9.923248
  9.914659
  9.906444
  9.898921
  9.892304
  9.886626
  9.881767
  9.877927
  9.875346
  9.818738
  9.818232
  9.816760
  9.814142
  9.809928
  9.805340
  9.801105
  9.795225
  9.787319
  9.780010
  9.773874
  9.767767
  9.761561
  9.755805
  9.750698
  9.747035
  9.744830
  9.743654
  9.743512
  9.744835
  9.670133
  9.669614
  9.668311
  9.666052
  9.662287
  9.658189
  9.654697
  9.650300
  9.644305
  9.638525
  9.633945
  9.629588
  9.625296
  9.621652
  9.618954
  9.618023
  9.618807
  9.620778
  9.623933
  9.628704
  9.541478
  9.541035
  9.539849
  9.537815
  9.534772
  9.531362
  9.528175
  9.524716
  9.520692
  9.516795
  9.513593
  9.510515
  9.507751
  9.506052
  9.505743
  9.507175
  9.510155
  9.514524
  9.520457
  9.528130
  9.433965
  9.433619
  9.432483
  9.430600
  9.428445
  9.425959
  9.423036
  9.419936
  9.416975
  9.414274
  9.412017
  9.410241
  9.409335
  9.409695
  9.411416
  9.414557
  9.419136
  9.425359
  9.433400
  9.443276
  9.347080
  9.346757
  9.345669
  9.344074
  9.342643
  9.340823
  9.338306
  9.335681
  9.333459
  9.331468
  9.329877
  9.329334
  9.330073
  9.331914
  9.334852
  9.339095
  9.344988
  9.352668
  9.362164
  9.373534
  9.279193
  9.278858
  9.277898
  9.276696
  9.275660
  9.274157
  9.272175
  9.270300
  9.268924
  9.267751
  9.266892
  9.267050
  9.268466
  9.270891
  9.274489
  9.279589
  9.286423
  9.295018
  9.305447
  9.317798
  9.228060
  9.227799
  9.227032
  9.226045
  9.225039
  9.223697
  9.222274
  9.221052
  9.220229
  9.219811
  9.219829
  9.220475
  9.222073
  9.224777
  9.228858
  9.234535
  9.241854
  9.250877
  9.261794
  9.274724
  9.191315
  9.191145
  9.190642
  9.189800
  9.188740
  9.187558
  9.186531
  9.185678
  9.185063
  9.184914
  9.185401
  9.186458
  9.188349
  9.191443
  9.195891
  9.201819
  9.209339
  9.218580
  9.229727
  9.242941
  9.166793
  9.166657
  9.166314
  9.165636
  9.164706
  9.163781
  9.162975
  9.162236
  9.161690
  9.161552
  9.162124
  9.163478
  9.165730
  9.169108
  9.173711
  9.179695
  9.187276
  9.196629
  9.207894
  9.221217
  9.152800
  9.152676
  9.152337
  9.151734
  9.150956
  9.150187
  9.149460
  9.148804
  9.148398
  9.148419
  9.149090
  9.150563
  9.152935
  9.156350
  9.160979
  9.166999
  9.174593
  9.183954
  9.195233
  9.208590
  10.847063
  10.862426
  10.937551
  10.925992
  10.876471
  10.947665
  10.889239
  10.956432
  10.900756
  10.963980
  10.911115
  10.970415
  10.920383
  10.975854
  10.928570
  10.980403
  10.935761
  10.984176
  10.942075
  10.987267
  10.947554
  10.989776
  10.952196
  10.991786
  10.956149
  10.993379
  10.959505
  10.994618
  10.962217
  10.995566
  10.964348
  10.996272
  10.965971
  10.996778
  10.967092
  10.997118
  10.967726
  10.997312
  10.742264
  10.759896
  10.776485
  10.791999
  10.806468
  10.819853
  10.832177
  10.843302
  10.853355
  10.862445
  10.870576
  10.877676
  10.883890
  10.889325
  10.893765
  10.897275
  10.899970
  10.901813
  10.902845
  10.615959
  10.634135
  10.651641
  10.668419
  10.684426
  10.699608
  10.713844
  10.727023
  10.739195
  10.750229
  10.760286
  10.769444
  10.777513
  10.784525
  10.790351
  10.795081
  10.798652
  10.801118
  10.802489
  10.473910
  10.490953
  10.507747
  10.524197
  10.540266
  10.555876
  10.570772
  10.584829
  10.598118
  10.610256
  10.621417
  10.631823
  10.641084
  10.649053
  10.655834
  10.661506
  10.665726
  10.668592
  10.670223
  10.322597
  10.337120
  10.351795
  10.366501
  10.381309
  10.396040
  10.410402
  10.424167
  10.437228
  10.449563
  10.461094
  10.471907
  10.481580
  10.489928
  10.497147
  10.503372
  10.508027
  10.511096
  10.512846
  10.168587
  10.179518
  10.191027
  10.203074
  10.215536
  10.228194
  10.240820
  10.253530
  10.265745
  10.277580
  10.288460
  10.298501
  10.307737
  10.316210
  10.323548
  10.329767
  10.334480
  10.337627
  10.339438
  10.017839
  10.024647
  10.032379
  10.041056
  10.050407
  10.060536
  10.070761
  10.081342
  10.091635
  10.102197
  10.112171
  10.121094
  10.129259
  10.137514
  10.144956
  10.150543
  10.154824
  10.158082
  10.159934
  9.875345
  9.877935
  9.881796
  9.886841
  9.892553
  9.899819
  9.907813
  9.915702
  9.922752
  9.930313
  9.938941
  9.947653
  9.955235
  9.962911
  9.970128
  9.974967
  9.978591
  9.981815
  9.983654
  9.744835
  9.743454
  9.743633
  9.745270
  9.747586
  9.751587
  9.757195
  9.762681
  9.766839
  9.770897
  9.777413
  9.786168
  9.793877
  9.800407
  9.806321
  9.810428
  9.813619
  9.816621
  9.818381
  9.628705
  9.623847
  9.620730
  9.619300
  9.618904
  9.619948
  9.622824
  9.626226
  9.629140
  9.631491
  9.635634
  9.642805
  9.649724
  9.654803
  9.659054
  9.662633
  9.665650
  9.668205
  9.669730
  9.528130
  9.520492
  9.514660
  9.510507
  9.507899
  9.506671
  9.506897
  9.508039
  9.510367
  9.512892
  9.515541
  9.519841
  9.524684
  9.528618
  9.531945
  9.535094
  9.537712
  9.539693
  9.540988
  9.443276
  9.433505
  9.425630
  9.419444
  9.415035
  9.412168
  9.410706
  9.410074
  9.410945
  9.412786
  9.414456
  9.416753
  9.419936
  9.423237
  9.426228
  9.428816
  9.430753
  9.432248
  9.433411
  9.373534
  9.362179
  9.352817
  9.345333
  9.339581
  9.335348
  9.332823
  9.331309
  9.330553
  9.330671
  9.331627
  9.333367
  9.335657
  9.338191
  9.340782
  9.342958
  9.344394
  9.345563
  9.346578
  9.317798
  9.305431
  9.295118
  9.286768
  9.280134
  9.274939
  9.271396
  9.269248
  9.267930
  9.267470
  9.268125
  9.269241
  9.270419
  9.271936
  9.273984
  9.275814
  9.276950
  9.277934
  9.278791
  9.274724
  9.261812
  9.250952
  9.241983
  9.234789
  9.229182
  9.224920
  9.221991
  9.220492
  9.220217
  9.220546
  9.220831
  9.221312
  9.222328
  9.223834
  9.225177
  9.226116
  9.227005
  9.227726
  9.242942
  9.229741
  9.218591
  9.209345
  9.201901
  9.196132
  9.191689
  9.188395
  9.186339
  9.185364
  9.185022
  9.185146
  9.185810
  9.186794
  9.187815
  9.188752
  9.189704
  9.190558
  9.191067
  9.221217
  9.207893
  9.196634
  9.187318
  9.179752
  9.173769
  9.169249
  9.166048
  9.163771
  9.162202
  9.161449
  9.161565
  9.162203
  9.162975
  9.163691
  9.164510
  9.165512
  9.166305
  9.166648
  9.208590
  9.195230
  9.183965
  9.174625
  9.167016
  9.160958
  9.156336
  9.153029
  9.150738
  9.149250
  9.148514
  9.148433
  9.148783
  9.149376
  9.150079
  9.150878
  9.151702
  9.152337
  9.152676
  9.204450
  9.191078
  9.179799
  9.170445
  9.162841
  9.156811
  9.152182
  9.148778
  9.146432
  9.144978
  9.144258
  9.144115
  9.144400
  9.144975
  9.145707
  9.146480
  9.147193
  9.147763
  9.148131
  9.208590
  9.195230
  9.221218
  9.207896
  9.242941
  9.229727
  9.274724
  9.261807
  9.317798
  9.305480
  9.373534
  9.362180
  9.443277
  9.433406
  9.528131
  9.520446
  9.628706
  9.623904
  9.744836
  9.743538
  9.875347
  9.877995
  10.017841
  10.024695
  10.168589
  10.179549
  10.322598
  10.337136
  10.473912
  10.490968
  10.615960
  10.634152
  10.742265
  10.759903
  10.847063
  10.862425
  10.925993
  10.937550
  9.183952
  9.196653
  9.218593
  9.250928
  9.295148
  9.352778
  9.425458
  9.514600
  9.620793
  9.743730
  9.881909
  10.032531
  10.191149
  10.351891
  10.507820
  10.651679
  10.776502
  10.876474
  10.947665
  9.174593
  9.187330
  9.209373
  9.241935
  9.286681
  9.345249
  9.419354
  9.510387
  9.618985
  9.744997
  9.886856
  10.041272
  10.203293
  10.366714
  10.524335
  10.668476
  10.792028
  10.889239
  10.956433
  9.166997
  9.179756
  9.201899
  9.234720
  9.280017
  9.339512
  9.414964
  9.507747
  9.618686
  9.747628
  9.892837
  10.050641
  10.215719
  10.381524
  10.540427
  10.684495
  10.806478
  10.900760
  10.963980
  9.160989
  9.173757
  9.196032
  9.229179
  9.274924
  9.335170
  9.411961
  9.506726
  9.620293
  9.752015
  9.899959
  10.060511
  10.228308
  10.396157
  10.555963
  10.699636
  10.819860
  10.911127
  10.970416
  9.156384
  9.169217
  9.191612
  9.225083
  9.271329
  9.332384
  9.410517
  9.507105
  9.623045
  9.757377
  9.907785
  10.070705
  10.240873
  10.410455
  10.570928
  10.713898
  10.832156
  10.920375
  10.975855
  9.152984
  9.165963
  9.188474
  9.222118
  9.268895
  9.330981
  9.410416
  9.508247
  9.625660
  9.762258
  9.915540
  10.081184
  10.253388
  10.424187
  10.585035
  10.727118
  10.843330
  10.928571
  10.980404
  9.150618
  9.163722
  9.186527
  9.220406
  9.267582
  9.330604
  9.411210
  9.510103
  9.628579
  9.766990
  9.923155
  10.091870
  10.265855
  10.437205
  10.598118
  10.739338
  10.853551
  10.935814
  10.984177
  9.149123
  9.162244
  9.185565
  9.219923
  9.267280
  9.330768
  9.412409
  9.513130
  9.633547
  9.773338
  9.931183
  10.102286
  10.277776
  10.449425
  10.610106
  10.750483
  10.862735
  10.942139
  10.987269
  9.148393
  9.161557
  9.185254
  9.219967
  9.267633
  9.331792
  9.414527
  9.517239
  9.639985
  9.781238
  9.939963
  10.112168
  10.288716
  10.460976
  10.621312
  10.760561
  10.870805
  10.947578
  10.989777
  9.148331
  9.161677
  9.185372
  9.220187
  9.268666
  9.333989
  9.417517
  9.520968
  9.645056
  9.788202
  9.948384
  10.121245
  10.298623
  10.471713
  10.631714
  10.769604
  10.877848
  10.952217
  10.991788
  9.148721
  9.162219
  9.185831
  9.220968
  9.270406
  9.336405
  9.420206
  9.523916
  9.648836
  9.793957
  9.955994
  10.129729
  10.307772
  10.481385
  10.640975
  10.777554
  10.884007
  10.956182
  10.993380
  9.149356
  9.162906
  9.186636
  9.222336
  9.272331
  9.338451
  9.422828
  9.527578
  9.653469
  9.799840
  9.963147
  10.137710
  10.316218
  10.489862
  10.648974
  10.784449
  10.889309
  10.959508
  10.994618
  9.150133
  9.163763
  9.187771
  9.223845
  9.273974
  9.340379
  9.425821
  9.531962
  9.658809
  9.805646
  9.969449
  10.144619
  10.323562
  10.497242
  10.655865
  10.790337
  10.893746
  10.962221
  10.995566
  9.150923
  9.164652
  9.188897
  9.225142
  9.275452
  9.342396
  9.428516
  9.535386
  9.663075
  9.810510
  9.974740
  10.150349
  10.329653
  10.503270
  10.661405
  10.795029
  10.897252
  10.964356
  10.996272
  9.151639
  9.165477
  9.189841
  9.226211
  9.276903
  9.344422
  9.430781
  9.537746
  9.665969
  9.814118
  9.978914
  10.154882
  10.334333
  10.507839
  10.665587
  10.798585
  10.899931
  10.965975
  10.996778
  9.152265
  9.166204
  9.190555
  9.227040
  9.278078
  9.345960
  9.432570
  9.539648
  9.668041
  9.816567
  9.981818
  10.158104
  10.337645
  10.511096
  10.668577
  10.801112
  10.901799
  10.967094
  10.997119
  9.152682
  9.166671
  9.191075
  9.227693
  9.278820
  9.346751
  9.433580
  9.540958
  9.669516
  9.818157
  9.983536
  10.159940
  10.339514
  10.512912
  10.670243
  10.802492
  10.902845
  10.967730
  10.997313
  10.181109
  10.182357
  10.257397
  10.256096
  10.186110
  10.261676
  10.192380
  10.268990
  10.201192
  10.279266
  10.212582
  10.292368
  10.226586
  10.308278
  10.243250
  10.327067
  10.262607
  10.348856
  10.284693
  10.373615
  10.309528
  10.401304
  10.337115
  10.431754
  10.367436
  10.464803
  10.400431
  10.500258
  10.436007
  10.537914
  10.474009
  10.577479
  10.514232
  10.618567
  10.556386
  10.660795
  10.600130
  10.703624
  10.644987
  10.746439
  10.690449
  10.788569
  10.735853
  10.829274
  10.780488
  10.867713
  10.823528
  10.902986
  10.864071
  10.934203
  10.901164
  10.960387
  10.933795
  10.980616
  10.960963
  10.994039
  10.981657
  10.999823
  10.994946
  10.997273
  10.999976
  10.985798
  10.996037
  10.965065
  10.982584
  10.934919
  10.959276
  10.895463
  10.366323
  10.365122
  10.370837
  10.378850
  10.390109
  10.404151
  10.420839
  10.440412
  10.463114
  10.488939
  10.517647
  10.548895
  10.582357
  10.617718
  10.654586
  10.692612
  10.731270
  10.770045
  10.808235
  10.845146
  10.879999
  10.912035
  10.940395
  10.964140
  10.982542
  10.994704
  10.999824
  10.997321
  10.986622
  10.967263
  10.939059
  10.902083
  10.856560
  10.803030
  10.500396
  10.499492
  10.504541
  10.512247
  10.523402
  10.537498
  10.554209
  10.573613
  10.595849
  10.620856
  10.648282
  10.677730
  10.708757
  10.740970
  10.773852
  10.806894
  10.839582
  10.871228
  10.901048
  10.928332
  10.952310
  10.972208
  10.987236
  10.996613
  10.999790
  10.996018
  10.984673
  10.965556
  10.938364
  10.902904
  10.859375
  10.808170
  10.749945
  10.685534
  10.646460
  10.645728
  10.649951
  10.656660
  10.666819
  10.680083
  10.695800
  10.713611
  10.733451
  10.755246
  10.778726
  10.803521
  10.829169
  10.855128
  10.880804
  10.905604
  10.928962
  10.950182
  10.968478
  10.983168
  10.993586
  10.998957
  10.998664
  10.992228
  10.979261
  10.959166
  10.931657
  10.896927
  10.854890
  10.805506
  10.749382
  10.687195
  10.619858
  10.548379
  10.786755
  10.786383
  10.789221
  10.794693
  10.803616
  10.815311
  10.828644
  10.842962
  10.858198
  10.874401
  10.891469
  10.909080
  10.926769
  10.943880
  10.959729
  10.973712
  10.985266
  10.993758
  10.998510
  10.998955
  10.994512
  10.984503
  10.968546
  10.946474
  10.918057
  10.882941
  10.841305
  10.793432
  10.739348
  10.679361
  10.614392
  10.545179
  10.472741
  10.398174
  10.902576
  10.902481
  10.904349
  10.908548
  10.915328
  10.923826
  10.932881
  10.941911
  10.950883
  10.959910
  10.968946