# vtk DataFile Version 2.0

ASCII

DATASET UNSTRUCTURED_GRID
POINTS 18409 double
  0.423295  0.000000  0.619130
  0.423203  0.010148  0.618983
  0.432933  0.010068  0.612259
  0.433013  0.000000  0.612372
  0.423110  0.020296  0.618832
  0.432853  0.020136  0.612146
  0.422870  0.030436  0.618466
  0.432621  0.030197  0.611818
  0.422622  0.040576  0.618085
  0.432380  0.040257  0.611478
  0.422234  0.050702  0.617501
  0.431997  0.050304  0.610936
  0.421830  0.060827  0.616889
  0.431597  0.060348  0.610370
  0.421294  0.070932  0.616088
  0.431062  0.070374  0.609614
  0.420735  0.081033  0.615247
  0.430502  0.080396  0.608822
  0.420052  0.091110  0.614228
  0.429817  0.090394  0.607853
  0.419337  0.101180  0.613158
  0.429098  0.100386  0.606836
  0.418509  0.111222  0.611922
  0.428262  0.110349  0.605654
  0.417639  0.121253  0.610624
  0.427384  0.120303  0.604412
  0.416664  0.131253  0.609172
  0.426398  0.130225  0.603018
  0.415641  0.141238  0.607647
  0.425363  0.140133  0.601554
  0.414520  0.151190  0.605980
  0.424227  0.150007  0.599948
  0.413344  0.161121  0.604229
  0.423035  0.159862  0.598261
  0.412079  0.171016  0.602348
  0.421751  0.169681  0.596446
  0.410750  0.180885  0.600372
  0.420402  0.179475  0.594538
  0.409341  0.190719  0.598279
  0.418971  0.189233  0.592514
  0.407861  0.200519  0.596080
  0.417466  0.198959  0.590386
  0.406309  0.210283  0.593776
  0.415889  0.208649  0.588155
  0.404679  0.220006  0.591356
  0.414230  0.218299  0.585809
  0.402986  0.229694  0.588842
  0.412507  0.227915  0.583373
  0.401206  0.239334  0.586202
  0.410695  0.237482  0.580811
  0.399372  0.248940  0.583480
  0.408828  0.247016  0.578170
  0.397445  0.258488  0.580622
  0.406864  0.256494  0.575393
  0.395472  0.268004  0.577695
  0.404854  0.265940  0.572550
  0.393398  0.277454  0.574622
  0.402741  0.275320  0.569561
  0.391287  0.286874  0.571490
  0.400589  0.284673  0.566518
  0.389069  0.296218  0.568204
  0.398327  0.293949  0.563319
  0.386821  0.305537  0.564870
  0.396034  0.303201  0.560077
  0.384460  0.314767  0.561373
  0.393626  0.312365  0.556671
  0.382077  0.323977  0.557841
  0.391195  0.321511  0.553233
  0.379575  0.333088  0.554136
  0.388642  0.330556  0.549623
  0.377058  0.342183  0.550406
  0.386074  0.339589  0.545991
  0.374417  0.351166  0.546495
  0.383378  0.348510  0.542178
  0.371769  0.360141  0.542571
  0.380674  0.357423  0.538354
  0.368990  0.368990  0.538459
  0.377837  0.366212  0.534342
  0.366212  0.377837  0.534342
  0.375000  0.375000  0.530330
  0.413472  0.000000  0.625732
  0.413370  0.010228  0.625556
  0.413268  0.020455  0.625371
  0.413022  0.030676  0.624972
  0.412768  0.040896  0.624553
  0.412379  0.051102  0.623931
  0.411973  0.061305  0.623278
  0.411440  0.071490  0.622435
  0.410883  0.081670  0.621549
  0.410207  0.091826  0.620484
  0.409499  0.101975  0.619365
  0.408680  0.112095  0.618079
  0.407821  0.122204  0.616728
  0.406860  0.132282  0.615223
  0.405851  0.142344  0.613641
  0.404748  0.152372  0.611917
  0.403591  0.162380  0.610106
  0.402347  0.172351  0.608164
  0.401041  0.182296  0.606124
  0.399657  0.192204  0.603966
  0.398204  0.202079  0.601699
  0.396681  0.211917  0.599326
  0.395082  0.221714  0.596835
  0.393421  0.231474  0.594248
  0.391677  0.241186  0.591534
  0.389879  0.250863  0.588736
  0.387991  0.260482  0.585800
  0.386057  0.270068  0.582792
  0.384026  0.279587  0.579638
  0.381959  0.289076  0.576423
  0.379787  0.298487  0.573053
  0.377586  0.307872  0.569632
  0.375276  0.317169  0.566048
  0.372943  0.326444  0.562424
  0.370495  0.335619  0.558629
  0.368033  0.344777  0.554805
  0.365449  0.353823  0.550801
  0.362858  0.362858  0.546780
  0.360141  0.371769  0.542571
  0.357423  0.380674  0.538354
  0.403546  0.000000  0.632179
  0.403434  0.010304  0.631973
  0.403322  0.020608  0.631753
  0.403070  0.030905  0.631320
  0.402810  0.041201  0.630861
  0.402418  0.051484  0.630202
  0.402010  0.061763  0.629506
  0.401479  0.072024  0.628620
  0.400924  0.082279  0.627688
  0.400253  0.092511  0.626577
  0.399551  0.102735  0.625407
  0.398741  0.112930  0.624071
  0.397893  0.123114  0.622667
  0.396945  0.133266  0.621107
  0.395951  0.143402  0.619468
  0.394865  0.153504  0.617685
  0.393725  0.163584  0.615813
  0.392503  0.173628  0.613809
  0.391219  0.183645  0.611705
  0.389860  0.193625  0.609480
  0.388433  0.203571  0.607146
  0.386939  0.213479  0.604702
  0.385369  0.223346  0.602139
  0.383741  0.233176  0.599479
  0.382030  0.242956  0.596690
  0.380268  0.252701  0.593814
  0.378418  0.262387  0.590800
  0.376524  0.272039  0.587711
  0.374536  0.281624  0.584476
  0.372511  0.291178  0.581176
  0.370385  0.300654  0.577720
  0.368231  0.310102  0.574212
  0.365970  0.319462  0.570539
  0.363687  0.328797  0.566824
  0.361293  0.338034  0.562937
  0.358884  0.347251  0.559019
  0.356357  0.356357  0.554921
  0.353823  0.365449  0.550801
  0.351166  0.374417  0.546495
  0.348510  0.383378  0.542178
  0.393519  0.000000  0.638469
  0.393399  0.010381  0.638236
  0.393280  0.020761  0.637984
  0.393024  0.031134  0.637521
  0.392760  0.041506  0.637028
  0.392368  0.051864  0.636334
  0.391961  0.062220  0.635599
  0.391434  0.072556  0.634675
  0.390883  0.082887  0.633700
  0.390220  0.093194  0.632546
  0.389527  0.103493  0.631330
  0.388729  0.113763  0.629948
  0.387893  0.124021  0.628493
  0.386961  0.134247  0.626883
  0.385983  0.144457  0.625190
  0.384917  0.154632  0.623353
  0.383798  0.164785  0.621423
  0.382599  0.174902  0.619360
  0.381340  0.184991  0.617195
  0.380008  0.195042  0.614908
  0.378609  0.205058  0.612510
  0.377146  0.215037  0.610000
  0.375609  0.224974  0.607369
  0.374015  0.234872  0.604639
  0.372341  0.244721  0.601778
  0.370618  0.254533  0.598829
  0.368808  0.264287  0.595741
  0.366956  0.274006  0.592575
  0.365011  0.283656  0.589261
  0.363032  0.293274  0.585880
  0.360954  0.302815  0.582343
  0.358849  0.312325  0.578750
  0.356640  0.321748  0.574994
  0.354410  0.331145  0.571191
  0.352071  0.340442  0.567217
  0.349718  0.349718  0.563207
  0.347251  0.358884  0.559019
  0.344777  0.368033  0.554805
  0.342183  0.377058  0.550406
  0.339589  0.386074  0.545991
  0.383395  0.000000  0.644600
  0.383267  0.010454  0.644340
  0.383139  0.020907  0.644056
  0.382879  0.031353  0.643562
  0.382611  0.041798  0.643033
  0.382219  0.052229  0.642304
  0.381812  0.062657  0.641530
  0.381288  0.073066  0.640566
  0.380742  0.083469  0.639548
  0.380086  0.093848  0.638351
  0.379401  0.104218  0.637089
  0.378615  0.114560  0.635659
  0.377791  0.124889  0.634154
  0.376874  0.135186  0.632492
  0.375913  0.145466  0.630745
  0.374865  0.155711  0.628853
  0.373767  0.165934  0.626865
  0.372590  0.176120  0.624743
  0.371356  0.186277  0.622517
  0.370050  0.196396  0.620167
  0.368681  0.206481  0.617704
  0.367247  0.216526  0.615127
  0.365743  0.226529  0.612428
  0.364183  0.236494  0.609627
  0.362546  0.246408  0.606695
  0.360859  0.256284  0.603671
  0.359090  0.266102  0.600508
  0.357279  0.275883  0.597264
  0.355379  0.285597  0.593871
  0.353445  0.295276  0.590409
  0.351415  0.304877  0.586791
  0.349358  0.314448  0.583113
  0.347201  0.323930  0.579271
  0.345023  0.333384  0.575380
  0.342739  0.342739  0.571318
  0.340442  0.352071  0.567217
  0.338034  0.361293  0.562937
  0.335619  0.370495  0.558629
  0.333088  0.379575  0.554136
  0.330556  0.388642  0.549623
  0.373175  0.000000  0.650570
  0.373041  0.010526  0.650286
  0.372907  0.021052  0.649975
  0.372645  0.031571  0.649453
  0.372375  0.042088  0.648892
  0.371985  0.052592  0.648131
  0.371580  0.063092  0.647321
  0.371062  0.073573  0.646322
  0.370522  0.084048  0.645264
  0.369876  0.094499  0.644028
  0.369201  0.104940  0.642722
  0.368428  0.115353  0.641249
  0.367619  0.125753  0.639697
  0.366719  0.136120  0.637987
  0.365776  0.146470  0.636190
  0.364750  0.156785  0.634246
  0.363674  0.167077  0.632204
  0.362522  0.177331  0.630027
  0.361315  0.187557  0.627743
  0.360038  0.197744  0.625333
  0.358699  0.207895  0.622808
  0.357298  0.218007  0.620169
  0.355828  0.228076  0.617405
  0.354304  0.238106  0.614537
  0.352705  0.248085  0.611536
  0.351059  0.258026  0.608442
  0.349332  0.267907  0.605207
  0.347564  0.277751  0.601889
  0.345710  0.287526  0.598421
  0.343823  0.297266  0.594881
  0.341843  0.306928  0.591185
  0.339837  0.316558  0.587426
  0.337734  0.326099  0.583502
  0.335610  0.335610  0.579527
  0.333384  0.345023  0.575380
  0.331145  0.354410  0.571191
  0.328797  0.363687  0.566824
  0.326444  0.372943  0.562424
  0.323977  0.382077  0.557841
  0.321511  0.391195  0.553233
  0.362861  0.000000  0.656378
  0.362721  0.010596  0.656071
  0.362581  0.021191  0.655730
  0.362317  0.031779  0.655181
  0.362046  0.042366  0.654587
  0.361657  0.052939  0.653795
  0.361254  0.063508  0.652949
  0.360741  0.074058  0.651914
  0.360208  0.084601  0.650816
  0.359571  0.095121  0.649540
  0.358907  0.105630  0.648191
  0.358146  0.116111  0.646673
  0.357352  0.126578  0.645074
  0.356469  0.137013  0.643317
  0.355545  0.147430  0.641469
  0.354539  0.157811  0.639473
  0.353486  0.168169  0.637377
  0.352359  0.178489  0.635143
  0.351177  0.188780  0.632801
  0.349929  0.199032  0.630332
  0.348620  0.209247  0.627746
  0.347251  0.219423  0.625043
  0.345816  0.229555  0.622214
  0.344328  0.239647  0.619279
  0.342767  0.249688  0.616209
  0.341161  0.259689  0.613044
  0.339476  0.269631  0.609737
  0.337752  0.279534  0.606344
  0.335944  0.289368  0.602802
  0.334103  0.299166  0.599184
  0.332173  0.308885  0.595409
  0.330218  0.318571  0.591568
  0.328168  0.328168  0.587563
  0.326099  0.337734  0.583502
  0.323930  0.347201  0.579271
  0.321748  0.356640  0.574994
  0.319462  0.365970  0.570539
  0.317169  0.375276  0.566048
  0.314767  0.384460  0.561373
[...]
POINT_DATA 18409
SCALARS DataPlot double
LOOKUP_TABLE default
  0.987276
  0.987198
  0.997345
  0.997375
  0.987120
  0.997314
  0.986910
  0.997223
  0.986692
  0.997128
  0.986345
  0.996972
  0.985980
  0.996806
  0.985484
  0.996575
  0.984960
  0.996325
  0.984305
  0.996008
  0.983605
  0.995660
  0.982775
  0.995236
  0.981880
  0.994770
  0.980850
  0.994219
  0.979740
  0.993611
  0.978486
  0.992908
  0.977131
  0.992129
  0.975627
  0.991244
  0.973997
  0.990262
  0.972211
  0.989161
  0.970273
  0.987938
  0.968171
  0.986585
  0.965889
  0.985082
  0.963437
  0.983435
  0.960769
  0.981607
  0.957927
  0.979622
  0.954837
  0.977422
  0.951565
  0.975052
  0.948007
  0.972431
  0.944266
  0.969626
  0.940202
  0.966531
  0.935949
  0.963239
  0.931334
  0.959617
  0.926530
  0.955788
  0.921324
  0.951584
  0.915929
  0.947166
  0.910094
  0.942327
  0.904074
  0.937267
  0.897569
  0.931740
  0.890890
  0.925993
  0.969094
  0.968957
  0.968824
  0.968482
  0.968130
  0.967579
  0.967001
  0.966230
  0.965418
  0.964415
  0.963353
  0.962102
  0.960771
  0.959254
  0.957634
  0.955828
  0.953898
  0.951779
  0.949509
  0.947051
  0.944415
  0.941589
  0.938556
  0.935333
  0.931872
  0.928222
  0.924299
  0.920190
  0.915773
  0.911180
  0.906238
  0.901124
  0.895633
  0.889972
  0.883898
  0.877668
  0.870987
  0.864160
  0.856854
  0.849414
  0.942479
  0.942271
  0.942070
  0.941584
  0.941088
  0.940320
  0.939521
  0.938465
  0.937357
  0.935998
  0.934569
  0.932896
  0.931130
  0.929129
  0.927009
  0.924660
  0.922164
  0.919452
  0.916563
  0.913462
  0.910158
  0.906651
  0.902907
  0.898970
  0.894766
  0.890376
  0.885694
  0.880833
  0.875649
  0.870296
  0.864586
  0.858726
  0.852479
  0.846092
  0.839294
  0.832372
  0.825004
  0.817537
  0.809597
  0.801583
  0.907285
  0.906998
  0.906726
  0.906093
  0.905448
  0.904465
  0.903450
  0.902114
  0.900716
  0.899014
  0.897232
  0.895156
  0.892972
  0.890514
  0.887918
  0.885063
  0.882044
  0.878780
  0.875324
  0.871634
  0.867724
  0.863601
  0.859228
  0.854655
  0.849806
  0.844776
  0.839437
  0.833936
  0.828099
  0.822121
  0.815781
  0.809320
  0.802472
  0.795523
  0.788166
  0.780731
  0.772866
  0.764950
  0.756578
  0.748184
  0.863588
  0.863213
  0.862856
  0.862072
  0.861276
  0.860081
  0.858850
  0.857239
  0.855566
  0.853533
  0.851413
  0.848960
  0.846385
  0.843500
  0.840470
  0.837143
  0.833649
  0.829883
  0.825920
  0.821705
  0.817269
  0.812602
  0.807686
  0.802570
  0.797176
  0.791600
  0.785726
  0.779702
  0.773351
  0.766880
  0.760053
  0.753136
  0.745850
  0.738498
  0.730753
  0.722980
  0.714799
  0.706615
  0.698007
  0.689427
  0.811670
  0.811209
  0.810767
  0.809840
  0.808902
  0.807510
  0.806079
  0.804219
  0.802293
  0.799965
  0.797542
  0.794748
  0.791831
  0.788570
  0.785157
  0.781432
  0.777527
  0.773336
  0.768948
  0.764300
  0.759424
  0.754322
  0.748966
  0.743420
  0.737598
  0.731618
  0.725340
  0.718931
  0.712211
  0.705400
  0.698248
  0.691044
  0.683494
  0.675913
  0.667973
  0.660048
  0.651737
  0.643488
  0.634838
  0.626285
  0.752025
  0.751472
  0.750946
  0.749880
  0.748811
  0.747230
  0.745614
  0.743525
  0.741376
  0.738782
  0.736097
  0.733001
  0.729791
  0.726209
  0.722477
  0.718409
  0.714169
  0.709636
  0.704895
  0.699903
  0.694683
  0.689244
  0.683564
  0.677703
  0.671576
  0.665314
  0.658766
  0.652120
  0.645175
  0.638168
  0.630851
  0.623522
  0.615867
  0.608236
  0.600269
  0.592361
  0.584117
  0.575969
  0.567475
  0.559120
  0.685354
  0.684717
  0.684106
  0.682921
  0.681727
  0.679991
  0.678218
  0.675938
  0.673600
  0.670788
  0.667887
  0.664559
  0.661112
  0.657274
  0.653293
  0.648976
  0.644482
  0.639691
  0.634708
  0.629472
  0.624019
  0.618359
  0.612471
  0.606423
  0.600122
  0.593710
  0.587037
  0.580293
  0.573278
  0.566244
  0.558917
  0.551626
  0.544036
  0.536515
  0.528697
  0.520983
  0.512975
  0.505113
  0.496954
  0.488975
  0.612499
  0.611775
  0.611093
  0.609788
  0.608494
  0.606619
  0.604715
  0.602281
  0.599784
  0.596805
  0.593728
  0.590216
  0.586592
  0.582575
  0.578415
  0.573913
  0.569247
  0.564292
  0.559153
  0.553771
  0.548195
  0.542424
  0.536441
  0.530324
  0.523974
  0.517547
  0.510879
  0.504174
  0.497230
  0.490297
  0.483114
  0.476001
  0.468628
  0.461371
  0.453857
  0.446503
  0.438886
  0.431463
  0.423789
  0.416350
  0.534450
  0.533653
  0.532904
  0.531516
  0.530129
  0.528152
  0.526152
  0.523606
  0.521003
  0.517899
  0.514719
  0.511085
  0.507352
  0.503221
  0.498961
  0.494362
  0.489615
  0.484586
  0.479392
  0.473971
  0.468367
  0.462605
  0.456639
  0.450569
  0.444296
  0.437973
  0.431437
  0.424911
  0.418162
  0.411475
  0.404578
  0.397777
  0.390773
  0.383915
  0.376850
  0.369976
  0.362901
  0.356061
  0.349010
  0.342239
  0.452284
  0.451428
  0.450617
  0.449156
  0.447706
  0.445653
  0.443585
  0.440956
  0.438285
  0.435110
  0.431868
  0.428175
  0.424383
  0.420212
  0.415920
  0.411306
  0.406553
  0.401536
  0.396372
  0.391002
  0.385471
  0.379801
  0.373968
  0.368047
  0.361959
  0.355850
  0.349567
  0.343317
  0.336901
  0.330566
  0.324067
  0.317710
  0.311180
  0.304843
  0.298348
  0.292077
  0.285655
  0.279511
  0.273209
  0.267212
  0.367143
  0.366243
  0.365388
  0.363878
  0.362387
  0.360297
  0.358186
  0.355530
  0.352833
  0.349644
  0.346382
  0.342696
  0.338914
  0.334766
  0.330511
  0.325954
  0.321272
  0.316351
  0.311300
  0.306066
  0.300705
  0.295225
  0.289610
  0.283938
  0.278133
  0.272340
  0.266405
  0.260538
  0.254547
  0.248673
  0.242669
  0.236853
  0.230911
  0.225190
  0.219353
  0.213793
  0.208118
  0.202756
  0.197287
  0.192158
  0.280187
  0.279252
  0.278362
  0.276828
  0.275311
  0.273211
  0.271090
  0.268440
  0.265750
  0.262583
  0.259360
  0.255721
  0.252004
  0.247937
  0.243783
  0.239344
  0.234796
  0.230038
  0.225176
  0.220155
  0.215030
  0.209820
  0.204500
  0.199155
  0.193716
  0.188309
  0.182813
  0.177413
  0.171920
  0.166581
  0.161170
  0.155962
  0.150683
  0.145653
  0.140561
  0.135768
  0.130921
  0.126406
  0.121843
  0.117643
  0.192549
  0.191594
  0.190684
  0.189156
  0.187639
  0.185557
  0.183463
  0.180848
  0.178211
  0.175114
  0.171964
  0.168428
  0.164820
  0.160893
  0.156885
  0.152621
  0.148273
  0.143738
  0.139117
  0.134374
  0.129553
  0.124672
  0.119717
  0.114771
  0.109755
  0.104807
  0.099805
  0.094935
  0.090006
  0.085272
  0.080501
  0.075957
  0.071397
  0.067116
  0.062814
  0.058839
  0.054865
  0.051239
  0.047619
  0.044376
  0.105324
  0.104366
  0.103445
  0.101930
  0.100433
  0.098392
  0.096346
  0.093800
  0.091241
  0.088246
  0.085209
  0.081803
  0.078353
  0.074598
  0.070792
  0.066745
  0.062638
  0.058371
  0.054052
  0.049630
  0.045160
  0.040659
  0.036115
  0.031604
  0.027065
  0.022626
  0.018166
  0.013858
  0.009549
  0.005448
  0.001354
  -0.002478
  -0.006288
  -0.009798
  -0.013271
  -0.016403
  -0.019490
  -0.022202
  -0.024864
  -0.027123
  0.019509
  0.018557
  0.017645
  0.016165
  0.014707
  0.012731
  0.010749
  0.008308
  0.005847
  0.002986
  0.000092
  -0.003141
  -0.006406
  -0.009954
  -0.013530
  -0.017315
  -0.021143
  -0.025099
  -0.029095
  -0.033159
  -0.037243
  -0.041328
  -0.045426
  -0.049463
  -0.053495
  -0.057403
  -0.061300
  -0.065013
  -0.068692
  -0.072132
  -0.075523
  -0.078634
  -0.081683
  -0.084405
  -0.087047
  -0.089333
  -0.091523
  -0.093330
  -0.095037
  -0.096321
  -0.064004
  -0.064935
  -0.065830
  -0.067257
  -0.068664
  -0.070555
  -0.072452
  -0.074778
  -0.077110
  -0.079819
  -0.082551
  -0.085584
  -0.088645
  -0.091950
  -0.095283
  -0.098785
  -0.102308
  -0.105939
  -0.109578
  -0.113258
  -0.116937
  -0.120585
  -0.124222
  -0.127769
  -0.131284
  -0.134646
  -0.137962
  -0.141070
  -0.144108
  -0.146889
  -0.149585
  -0.151975
  -0.154261
  -0.156208
  -0.158032
  -0.159475
  -0.160794
  -0.161706
  -0.162483
  -0.162824
  -0.144428
  -0.145325
  -0.146197
  -0.147556
  -0.148906
  -0.150700
  -0.152489
  -0.154682
  -0.156874
  -0.159412
  -0.161957
  -0.164785
  -0.167623
  -0.170672
  -0.173731
  -0.176940
  -0.180141
  -0.183432
  -0.186707
  -0.189998
  -0.193257
  -0.196470
  -0.199641
  -0.202695
  -0.205688
  -0.208504
  -0.211246
  -0.213758
  -0.216165
  -0.218297
  -0.220306
  -0.221999
  -0.223549
  -0.224743
  -0.225777
  -0.226419
  -0.226893
  -0.226950
  -0.226826
  -0.226268
  -0.221122
  -0.221980
  -0.222818
  -0.224103
  -0.225375
  -0.227060
  -0.228741
  -0.230787
  -0.232834
  -0.235186
  -0.237545
  -0.240148
  -0.242752
  -0.245542
  -0.248323
  -0.251224
  -0.254110
  -0.257054
  -0.259961
  -0.262859
  -0.265709
  -0.268484
  -0.271191
  -0.273766
  -0.276245
  -0.278539
  -0.280718
  -0.282655
  -0.284457
  -0.285968
  -0.287323
  -0.288346
  -0.289191
  -0.289666
  -0.289948
  -0.289836
  -0.289507
  -0.288759
  -0.287792
  -0.286382
  -0.293574
  -0.294388
  -0.295176
  -0.296376
  -0.297576
  -0.299141
  -0.300711
  -0.302602
  -0.304494
  -0.306654
  -0.308820
  -0.311198
  -0.313570
  -0.316097
  -0.318605
  -0.321203
  -0.323774
  -0.326375
  -0.328924
  -0.331438
  -0.333887
  -0.336241
  -0.338505
  -0.340616
  -0.342610
  -0.344397
  -0.346046
  -0.347438
  -0.348666
  -0.349591
  -0.350329
  -0.350723
  -0.350911
  -0.350721
  -0.350308
  -0.349480
  -0.348416
  -0.346922
  -0.345168
  -0.342975
  -0.361402
  -0.362159
  -0.362901
  -0.364022
  -0.365135
  -0.366580
  -0.368028
  -0.369764
  -0.371498
  -0.373474
  -0.375445
  -0.377599
  -0.379739
  -0.382011
  -0.384250
  -0.386557
  -0.388821
  -0.391088
  -0.393293
  -0.395447
  -0.397508
  -0.399466
  -0.401309
  -0.402981
  -0.404516
  -0.405839
  -0.406990
  -0.407875
  -0.408568
  -0.408955
  -0.409125
  -0.408942
  -0.408527
  -0.407724
  -0.406668
  -0.405194
  -0.403455
  -0.401276
  -0.398814
  -0.395898
  -0.424359
  -0.425058
  -0.425748
  -0.426778
  -0.427805
  -0.429133
  -0.430462
  -0.432042
  -0.433628
  -0.435417
  -0.437200
  -0.439140
  -0.441058
  -0.443077
  -0.445061
  -0.447088
  -0.449063
  -0.451023
  -0.452900
  -0.454716
  -0.456421
  -0.458002
  -0.459456
  -0.460725
  -0.461838
  -0.462726
  -0.463425
  -0.463848
  -0.464061
  -0.463950
  -0.463608
  -0.462902
  -0.461941
  -0.460587
  -0.458949
  -0.456896
  -0.454546
  -0.451755
  -0.448648
  -0.445089
  -0.482303
  -0.482943
  -0.483583
  -0.484519
  -0.485463
  -0.486667
  -0.487877
  -0.489314
  -0.490749
  -0.492361
  -0.493963
  -0.495695
  -0.497406
  -0.499189
  -0.500932
  -0.502699
  -0.504403
  -0.506071
  -0.507653
  -0.509148
  -0.510530
  -0.511770
  -0.512867
  -0.513773
  -0.514504
  -0.514997
  -0.515291
  -0.515300
  -0.515077
  -0.514528
  -0.513724
  -0.512559
  -0.511110
  -0.509264
  -0.507119
  -0.504553
  -0.501661
  -0.498328
  -0.494655
  -0.490526
  -0.535199
  -0.535783
  -0.536368
  -0.537220
  -0.538080
  -0.539172
  -0.540269
  -0.541562
  -0.542856
  -0.544301
  -0.545735
  -0.547275
  -0.548786
  -0.550357
  -0.551877
  -0.553403
  -0.554854
  -0.556266
  -0.557572
  -0.558783
  -0.559865
  -0.560798
  -0.561577
  -0.562155
  -0.562547
  -0.562695
  -0.562626
  -0.562269
  -0.561662
  -0.560728
  -0.559522
  -0.557949
  -0.556077
  -0.553805
  -0.551214
  -0.548197
  -0.544833
  -0.541032
  -0.536862
  -0.532236
  -0.583113
  -0.583634
  -0.584167
  -0.584930
  -0.585711
  -0.586694
  -0.587686
  -0.588846
  -0.590006
  -0.591295
  -0.592574
  -0.593935
  -0.595265
  -0.596639
  -0.597955
  -0.599260
  -0.600491
  -0.601661
  -0.602727
  -0.603683
  -0.604501
  -0.605162
  -0.605659
  -0.605952
  -0.606048
  -0.605890
  -0.605506
  -0.604831
  -0.603896
  -0.602631
  -0.601076
  -0.599155
  -0.596919
  -0.594286
  -0.591312
  -0.587913
  -0.584151
  -0.579945
  -0.575356
  -0.570304
  -0.626165
  -0.626630
  -0.627110
  -0.627795
  -0.628499
  -0.629381
  -0.630273
  -0.631311
  -0.632352
  -0.633499
  -0.634631
  -0.635834
  -0.637001
  -0.638194
  -0.639329
  -0.640441
  -0.641471
  -0.642429
  -0.643279
  -0.644011
  -0.644598
  -0.645025
  -0.645274
  -0.645320
  -0.645154
  -0.644741
  -0.644086
  -0.643139
  -0.641921
  -0.640372
  -0.638524
  -0.636310
  -0.633767
  -0.630825
  -0.627529
  -0.623809
  -0.619706
  -0.615159
  -0.610212
  -0.604799
  -0.664549
  -0.664955
  -0.665389
  -0.665999
  -0.666628
  -0.667415
  -0.668216
  -0.669141
  -0.670069
  -0.671088
  -0.672092
  -0.673149
  -0.674171
  -0.675203
  -0.676177
  -0.677118
  -0.677969
  -0.678746
  -0.679407
  -0.679944
  -0.680335
  -0.680557
  -0.680600
  -0.680432
  -0.680050
  -0.679418
  -0.678539
  -0.677365
  -0.675914
  -0.674132
  -0.672042
  -0.669585
  -0.666789
  -0.663594
  -0.660035
  -0.656050
  -0.651671
  -0.646846
  -0.641605
  -0.635895
  -0.698489
  -0.698848
  -0.699232
  -0.699773
  -0.700339
  -0.701040
  -0.701757
  -0.702583
  -0.703410
  -0.704313
  -0.705204
  -0.706131
  -0.707023
  -0.707917
  -0.708749
  -0.709540
  -0.710241
  -0.710857
  -0.711358
  -0.711729
  -0.711950
  -0.712001
  -0.711866
  -0.711522
  -0.710957
  -0.710142
  -0.709074
  -0.707715
  -0.706069
  -0.704096
  -0.701807
  -0.699152
  -0.696149
  -0.692750
  -0.688974
  -0.684775
  -0.680168
  -0.675114
  -0.669631
  -0.663680
  -0.728249
  -0.728559
  -0.728899
  -0.729375
  -0.729883
  -0.730505
  -0.731149
  -0.731882
  -0.732621
  -0.733422
  -0.734210
  -0.735025
  -0.735805
  -0.736577
  -0.737288
  -0.737950
  -0.738521
  -0.739004
  -0.739367
  -0.739600
  -0.739680
  -0.739587
  -0.739311
  -0.738819
  -0.738109
  -0.737147
  -0.735928
  -0.734419
  -0.732622
  -0.730499
  -0.728052
  -0.725242
  -0.722079
  -0.718521
  -0.714578
  -0.710209
  -0.705426
  -0.700195
  -0.694523
  -0.688378
  -0.754103
  -0.754368
  -0.754670
  -0.755089
  -0.755543
  -0.756098
  -0.756673
  -0.757328
  -0.757989
  -0.758702
  -0.759402
  -0.760120
  -0.760803
  -0.761471
  -0.762077
  -0.762629
  -0.763093
  -0.763462
  -0.763712
  -0.763828
  -0.763792
  -0.763583
  -0.763186
  -0.762577
  -0.761746
  -0.760665
  -0.759326
  -0.757698
  -0.755780
  -0.753536
  -0.750965
  -0.748034
  -0.744744
  -0.741060
  -0.736985
  -0.732487
  -0.727563
  -0.722190
  -0.716366
  -0.710068
  -0.776330
  -0.776555
  -0.776819
  -0.777187
  -0.777593
  -0.778084
  -0.778602
  -0.779187
  -0.779779
  -0.780415
  -0.781039
  -0.781675
  -0.782278
  -0.782857
  -0.783376
  -0.783838
  -0.784212
  -0.784489
  -0.784644
  -0.784669
  -0.784538
  -0.784237
  -0.783746
  -0.783047
  -0.782123
  -0.780952
  -0.779523
  -0.777806
  -0.775796
  -0.773465
  -0.770803
  -0.767785
  -0.764402
  -0.760628
  -0.756457
  -0.751863
  -0.746838
  -0.741362
  -0.735425
  -0.729011
  -0.795202
  -0.795390
  -0.795622
  -0.795947
  -0.796310
  -0.796749
  -0.797215
  -0.797740
  -0.798276
  -0.798846
  -0.799408
  -0.799972
  -0.800507
  -0.801013
  -0.801462
  -0.801848
  -0.802147
  -0.802349
  -0.802431
  -0.802379
  -0.802174
  -0.801798
  -0.801234
  -0.800462
  -0.799466
  -0.798225
  -0.796724
  -0.794940
  -0.792860
  -0.790462
  -0.787732
  -0.784646
  -0.781193
  -0.777350
  -0.773105
  -0.768438
  -0.763332
  -0.757776
  -0.751751
  -0.745246
  -0.810980
  -0.811135
  -0.811337
  -0.811620
  -0.811945
  -0.812339
  -0.812763
  -0.813236
  -0.813723
  -0.814238
  -0.814746
  -0.815254
  -0.815732
  -0.816179
  -0.816571
  -0.816898
  -0.817139
  -0.817282
  -0.817307
  -0.817198
  -0.816937
  -0.816506
  -0.815889
  -0.815063
  -0.814017
  -0.812727
  -0.811177
  -0.809347
  -0.807222
  -0.804778
  -0.802003
  -0.798875
  -0.795375
  -0.791488
  -0.787196
  -0.782480
  -0.777323
  -0.771712
  -0.765625
  -0.759057
  -0.823899
  -0.824025
  -0.824201
  -0.824452
  -0.824745
  -0.825100
  -0.825487
  -0.825918
  -0.826366
  -0.826835
  -0.827301
  -0.827762
  -0.828196
  -0.828597
  -0.828942
  -0.829222
  -0.829417
  -0.829515
  -0.829496
  -0.829342
  -0.829039
  -0.828566
  -0.827908
  -0.827045
  -0.825959
  -0.824632
  -0.823046
  -0.821182
  -0.819022
  -0.816546
  -0.813738
  -0.810576
  -0.807043
  -0.803122
  -0.798792
  -0.794039
  -0.788839
  -0.783182
  -0.777048
  -0.770423
  -0.834168
  -0.834269
  -0.834422
  -0.834642
  -0.834908
  -0.835230
  -0.835587
  -0.835983
  -0.836399
  -0.836833
  -0.837264
  -0.837690
  -0.838090
  -0.838455
  -0.838767
  -0.839013
  -0.839176
  -0.839241
  -0.839191
  -0.839009
  -0.838677
  -0.838177
  -0.837493
  -0.836606
  -0.835498
  -0.834150
  -0.832544
  -0.830661
  -0.828482
  -0.825989
  -0.823163
  -0.819985
  -0.816434
  -0.812495
  -0.808145
  -0.803370
  -0.798146
  -0.792462
  -0.786295
  -0.779634
  -0.841966
  -0.842045
  -0.842178
  -0.842374
  -0.842618
  -0.842915
  -0.843247
  -0.843618
  -0.844007
  -0.844415
  -0.844821
  -0.845220
  -0.845595
  -0.845935
  -0.846222
  -0.846445
  -0.846585
  -0.846628
  -0.846557
  -0.846354
  -0.846004
  -0.845486
  -0.844785
  -0.843881
  -0.842758
  -0.841395
  -0.839776
  -0.837879
  -0.835688
  -0.833182
  -0.830342
  -0.827150
  -0.823584
  -0.819628
  -0.815260
  -0.810463
  -0.805216
  -0.799504
  -0.793304
  -0.786606
  -0.847432
  -0.847492
  -0.847607
  -0.847783
  -0.848009
  -0.848284
  -0.848599
  -0.848949
  -0.849320
  -0.849708
  -0.850098
  -0.850480
  -0.850839
  -0.851163
  -0.851437
  -0.851647
  -0.851776
  -0.851808
  -0.851728
  -0.851516
  -0.851158
  -0.850635
  -0.849928
  -0.849020
  -0.847893
  -0.846528
  -0.844906
  -0.843008
  -0.840814
  -0.838306
  -0.835463
  -0.832267
  -0.828697
  -0.824735
  -0.820358
  -0.815550
  -0.810290
  -0.804561
  -0.798340
  -0.791616
  -0.850670
  -0.850714
  -0.850816
  -0.850977
  -0.851189
  -0.851449
  -0.851751
  -0.852088
  -0.852449
  -0.852825
  -0.853206
  -0.853579
  -0.853930
  -0.854248
  -0.854517
  -0.854722
  -0.854847
  -0.854877
  -0.854794
  -0.854582
  -0.854223
  -0.853700
  -0.852993
  -0.852086
  -0.850960
  -0.849594
  -0.847972
  -0.846073
  -0.843878
  -0.841367
  -0.838520
  -0.835318
  -0.831740
  -0.827767
  -0.823378
  -0.818553
  -0.813272
  -0.807518
  -0.801270
  -0.794511
  -0.851743
  -0.851773
  -0.851863
  -0.852011
  -0.852213
  -0.852464
  -0.852758
  -0.853087
  -0.853443
  -0.853816
  -0.854194
  -0.854567
  -0.854920
  -0.855241
  -0.855514
  -0.855724
  -0.855857
  -0.855894
  -0.855821
  -0.855618
  -0.855270
  -0.854757
  -0.854061
  -0.853165
  -0.852049
  -0.850694
  -0.849081
  -0.847190
  -0.845003
  -0.842497
  -0.839655
  -0.836455
  -0.832877
  -0.828900
  -0.824505
  -0.819671
  -0.814377
  -0.808605
  -0.802337
  -0.795550
  0.181110
  0.181146
  0.213098
  0.213024
  0.181280
  0.213281
  0.181554
  0.213626
  0.182021
  0.214192
  0.182755
  0.215062
  0.183849
  0.216348
  0.185424
  0.218184
  0.187634
  0.220745
  0.190668
  0.224255
  0.194770
  0.228971
  0.200226
  0.235223
  0.207392
  0.243386
  0.216685
  0.253893
  0.228588
  0.267248
  0.243653
  0.283990
  0.262481
  0.304709
  0.285709
  0.329987
  0.313966
  0.360385
  0.347818
  0.396370
  0.387681
  0.438285
  0.433735
  0.486137
  0.485787
  0.539557
  0.543178
  0.597637
  0.604691
  0.658898
  0.668547
  0.721328
  0.732475
  0.782481
  0.793928
  0.839731
  0.850307
  0.890549
  0.899326
  0.932821
  0.939247
  0.965106
  0.969077
  0.986761
  0.988620
  0.997954
  0.998393
  0.999533
  0.999470
  0.992838
  0.993270
  0.979475
  0.981358
  0.961116
  0.965274
  0.939343
  0.946420
  0.915548
  0.253843
  0.253724
  0.254090
  0.254510
  0.255186
  0.256200
  0.257682
  0.259784
  0.262698
  0.266669
  0.271983
  0.278989
  0.288082
  0.299710
  0.314369
  0.332587
  0.354907
  0.381865
  0.413921
  0.451417
  0.494624
  0.543360
  0.597076
  0.654612
  0.714269
  0.773829
  0.830733
  0.882357
  0.926298
  0.960693
  0.984436
  0.997257
  0.999687
  0.992882
  0.978411
  0.958026
  0.933468
  0.906324
  0.877944
  0.302778
  0.302607
  0.303090
  0.303602
  0.304390
  0.305555
  0.307234
  0.309594