# vtk DataFile Version 2.0
Mesh01
ASCII

DATASET UNSTRUCTURED_GRID
POINTS 6 double
  0.000000  0.000000  0.000000
  0.000000  1.000000  0.000000
  1.000000  0.000000  0.000000
  1.000000  1.000000  0.000000
  2.000000  1.000000  0.000000
  2.000000  0.000000  0.000000

CELLS 3 13
  3  0  1  2
  3  1  3  2
  4  2  3  4  5

CELL_TYPES 3
5
5
9

POINT_DATA 6
SCALARS temperature double
LOOKUP_TABLE default
  0.000000
  1.000000
  2.000000
  3.000000
  4.000000
  5.000000
VECTORS displacement double
  0.000000  0.000000  0.000000
  0.000000  1.000000  0.000000
  1.000000  0.000000  0.000000
  1.000000  1.000000  0.000000
  2.000000  1.000000  0.000000
  2.000000  0.000000  0.000000
