# vtk DataFile Version 2.0
Mesh03
ASCII

DATASET UNSTRUCTURED_GRID
POINTS 6 double
  0.000000  0.000000  0.000000
  0.000000  1.000000  0.000000
  1.000000  0.000000  0.000000
  1.000000  1.000000  0.000000
  2.000000  0.000000  0.000000
  2.000000  1.000000  0.000000

CELLS 3 13
  4  0  1  3  2
  3  2  5  4
  3  2  3  5

CELL_TYPES 3
9
5
5

POINT_DATA 6
SCALARS temperature double
LOOKUP_TABLE default
  0.000000
  1.000000
  2.000000
  3.000000
  4.000000
  5.000000
VECTORS displacement double
  0.000000  0.000000  0.000000
  0.000000  1.000000  0.000000
  1.000000  0.000000  0.000000
  1.000000  1.000000  0.000000
  2.000000  0.000000  0.000000
  2.000000  1.000000  0.000000
