# vtk DataFile Version 2.0
Mesh05
ASCII

DATASET UNSTRUCTURED_GRID
POINTS 15 double
  0.000000  0.000000  0.000000
  0.000000  0.000000  0.250000
  0.000000  0.000000  0.500000
  0.000000  0.000000  0.750000
  0.000000  0.000000  1.000000
  1.000000  0.000000  0.000000
  1.000000  0.000000  0.250000
  1.000000  0.000000  0.500000
  1.000000  0.000000  0.750000
  1.000000  0.000000  1.000000
  2.000000  0.000000  0.000000
  2.000000  0.000000  0.250000
  2.000000  0.000000  0.500000
  2.000000  0.000000  0.750000
  2.000000  0.000000  1.000000

CELLS 12 52
  3  0  6  5
  3  0  1  6
  3  1  2  6
  3  2  7  6
  3  2  8  7
  3  2  3  8
  3  3  4  8
  3  4  9  8
  4  5  6  11  10
  4  6  7  12  11
  4  7  8  13  12
  4  8  9  14  13

CELL_TYPES 12
5
5
5
5
5
5
5
5
9
9
9
9

POINT_DATA 15
SCALARS temperature double
LOOKUP_TABLE default
  0.000000
  1.000000
  2.000000
  3.000000
  4.000000
  5.000000
  6.000000
  7.000000
  8.000000
  9.000000
  10.000000
  11.000000
  12.000000
  13.000000
  14.000000
VECTORS displacement double
  0.000000  0.000000  0.000000
  0.000000  0.000000  0.250000
  0.000000  0.000000  0.500000
  0.000000  0.000000  0.750000
  0.000000  0.000000  1.000000
  1.000000  0.000000  0.000000
  1.000000  0.000000  0.250000
  1.000000  0.000000  0.500000
  1.000000  0.000000  0.750000
  1.000000  0.000000  1.000000
  2.000000  0.000000  0.000000
  2.000000  0.000000  0.250000
  2.000000  0.000000  0.500000
  2.000000  0.000000  0.750000
  2.000000  0.000000  1.000000
