<?xml version="1.0"?>
<VTKFile type="PolyData" version="0.1" byte_order="LittleEndian" compressor="vtkZLibDataCompressor">
  <PolyData>
    <Piece NumberOfPoints="1041" NumberOfVerts="0" NumberOfLines="0" NumberOfStrips="0" NumberOfPolys="1940">
      <PointData>
        <DataArray type="Float32" Name="PRESSURE" format="ascii" RangeMin="-10.57336235" RangeMax="1.1238149405">
          0 0.73650592566 0 0.48190793395 0.73143905401 0
          0.57741647959 0.22311149538 0.82593017817 0.49860134721 0.82372140884 0
          0.23248259723 0.091774068773 0.80430918932 0.52960032225 0.80175513029 0
          0.51945692301 0.22386707366 0.34762886167 0.60924428701 0.12666267157 0.53172975779
          0 0.40481445193 0.25549185276 0.51525443792 0.14505818486 0.4321256578
          0.071839280427 0.26225796342 0 0.37901100516 0.31491744518 0.2222866863
          0.19471091032 0.39178410172 0.12244664878 0.36680966616 0.26783454418 0.06200440228
          0.26835101843 0 0.30613946915 0.33371192217 0.24202367663 0.35627436638
          0.20487502217 0.15576860309 0.41098880768 0.10002464056 0.048492457718 0.35672023892
          0.20745953918 0.32367101312 0.16908068955 0.47841346264 0 0.27570033073
          0.23609182239 0.12731511891 0.28544735909 0.27733036876 0.079644538462 0.33631277084
          0.038959097117 0.18903101981 0.26867905259 0.22026348114 0.11748129874 0.15420736372
          0.27189338207 0 0.24186362326 0.24063049257 0.33797833323 0.29773259163
          0.077933520079 0.2619715631 0.24054504931 0.037813678384 0.14575225115 0.20255048573
          0.17359307408 0.27586525679 0.22573238611 0.26839181781 0 0.25661751628
          0.10593616962 0.24225218594 0.22601810098 0.32233774662 0.25966137648 0.25660273433
          0.24405220151 0.028746286407 0.068023890257 0.13374686241 0.16422753036 0.21110439301
          0.18878589571 0.23636546731 0.2663936317 0.23454876244 0.22323542833 0
          0.24915501475 0.067965149879 0.2672663331 0.11365325749 0.26276353002 0.013974727131
          0.034927207977 0.20386631787 0.22201102972 0.18519467115 0.15166789293 0.32654485106
          0.24800829589 0.21540427208 0.24278146029 0.075975827873 -0.13029752672 0
          0.01613218151 0.2587530911 0.13784520328 -0.10239409655 0.26114991307 0.045545458794
          0.2156367898 0.26900687814 0.20109283924 0.39303481579 0.23084278405 0.11296349019
          0.17686757445 0.25025588274 0.17308652401 0 0.20811517537 0.18030683696
          0.089045189321 0.16497863829 0.26804578304 0.29093930125 0.23385564983 0.1490188241
          0.21395102143 -0.16280543804 0.050709329545 0.31045636535 0.13211627305 0.24271473289
          0.18599711359 0.22282132506 0.26097840071 -0.11778987199 0 0.19812598825
          0.29040235281 0.10088595003 0.2593152225 0.31560328603 0.29235780239 -0.90524584055
          0.17927911878 0.25421762466 0.046535104513 0.23426039517 0.29178786278 0.13898704946
          0.30778080225 0.16790023446 0.37260577083 0.25334042311 0.20808835328 0.29720440507
          0 0.35674199462 0.20241990685 0.27591508627 0.29323998094 0.41592910886
          0.32037994266 0.15537768602 0.20163020492 0.43259865046 0.3566287756 0.06444837153
          0.20547650754 0.35549083352 0.31605884433 0.19096970558 0.20858862996 0.21904322505
          0.3446623981 0.39073941112 0.24494478106 0.21124699712 0.26409569383 0.44233515859
          0 0.71283042431 0.21375352144 0.38401466608 0.20192736387 0.42895075679
          0.34136620164 0.18502856791 0.29300901294 0.31544938684 0.38519626856 0.2417832464
          0.36944258213 0.4212923646 0.089046686888 0.23366615176 0.20021924376 0.22611162066
          0.21628686786 0.22172124684 0.232468009 0.33793091774 0.41540420055 0.25400364399
          0.3662493825 0.83625972271 0 1.0645829439 0.24572391808 0.31419482827
          0.18066714704 0.57196474075 0.40406757593 0.18412731588 0.27282455564 0.2093398422
          0.51112669706 0.35854887962 0.33102068305 0.44411954284 0.38858655095 0.24988222122
          0.29932302237 1.0647369623 0.23776903749 0.33038681746 0.13564172387 0.19433972239
          0.22262875736 0.44121780992 0.213142097 0.34679171443 0.35398063064 0.25633645058
          0.80354326963 0.38058337569 0.32574898005 1.0425652266 0 0.28834190965
          0.4660449028 0.21354530752 0.40838965774 0.28699669242 0.3847604692 0.15871752799
          0.50889837742 0.59559875727 0.4563370645 0.37572348118 0.26180413365 0.34795567393
          0.22865860164 0.84658950567 0.31787827611 0.45443752408 0.38925147057 0.44202244282
          0.23129120469 0.17026184499 0.41129186749 0.27104234695 0.17957901955 0.39060664177
          0.36768907309 0.38506013155 0.34513542056 0 0.82878488302 0.71945428848
          0.32657945156 0.3112077415 0.65172076225 0.22061303258 0.69050914049 0.42129632831
          0.47430247068 0.10673121363 0.37449276447 0.62654078007 0.36116677523 0.23812422156
          0.2929481566 0.24176694453 0.38836267591 0.68858379126 0.23903121054 0.34141996503
          0.45379883051 0.38893917203 0.49837842584 0.072033263743 0.3282032609 0.2953017056
          0.36689296365 0.17858658731 0.37243458629 0.36481785774 0.36509597301 0
          0.75070428848 0.548422575 0.57647567987 0.57116401196 0.20083259046 0.72380310297
          0.33756822348 0.17425598204 0.10779212415 0.36262464523 0.13534353673 0.11520771682
          0.39690765738 0.63550031185 0.18391819298 0.36270111799 0.34010824561 0.21031743288
          0.37226611376 0.55127519369 0.39057758451 0.2891253531 0.36406317353 0.47901383042
          0.29191082716 0.29943457246 0.35019478202 0.3251978755 0.045807443559 0.57861715555
          0.3772136569 0.37271168828 0.045270800591 0.32981875539 0.42568156123 0.28710985184
          0.26446679235 0.370832026 0.2407977879 0.082443922758 0.20885306597 0.26068231463
          -0.10776489973 0.32658731937 0.33299896121 0.24074156582 0.35033741593 0.28038048744
          0.33240661025 0.15191295743 0.23840668797 0.3928424418 0.12428240478 0.15036819875
          0.36561086774 0.17197716236 0.33839929104 0.044539049268 0.313934654 0.37556481361
          0.27856886387 0.27687031031 0.060572050512 0.14480485022 0.3967615962 0.13665361702
          0.086501479149 0.28457346559 -0.21381796896 0.36242455244 -0.020883178338 0.10339000821
          0.39639392495 0.27637243271 0.33732572198 0.39279776812 0.16207152605 -0.019243272021
          0.060167342424 -0.26263740659 -0.20897369087 0.42519518733 -0.061602324247 -0.0089881662279
          0.17655032873 0.27742546797 0.064773030579 0.12280420214 0.1669652909 0.40568983555
          0.36141067743 0.43562802672 -0.36977019906 -0.29996940494 0.0045432099141 0.35704249144
          -0.2123387605 -0.075069271028 -0.00097357085906 0.17904064059 -0.16529524326 0.29739013314
          0.50996750593 0.012779181823 -0.22854691744 -0.14103928208 0.41827487946 -0.95756101608
          0.48753726482 0.035367574543 -0.17829814553 -0.42787271738 0.42901459336 0.17055487633
          -0.25308707356 -0.23072974384 0.014810007997 0.43013396859 0.57760888338 -0.16586369276
          -0.41396918893 -0.36691078544 -0.29316842556 0.039073184133 0.31343874335 -0.47765374184
          0.17591904104 -0.16485950351 -0.41122540832 0.70083361864 0.82501369715 0.58802658319
          -0.48347249627 0.48095327616 0.23871807754 -0.38343772292 -0.61412078142 -0.11588100344
          0.017551695928 -0.6562654376 -0.42731145024 0.77984702587 -0.61398392916 -0.4062564671
          0.39438501 -0.71716344357 0.39200177789 0.20212614536 -0.1389490962 -0.73951297998
          0.042906180024 1.0916588306 -0.60867279768 -0.39387196302 0.49446719885 -0.7796214819
          -0.76052159071 -0.87519180775 -0.80677723885 -0.17051890492 1.1238149405 0.66850650311
          -0.81921994686 -0.64032739401 -0.4084610045 -0.97670024633 -0.82129311562 0.83715748787
          -1.0351701975 -0.6076413393 0.20219841599 0.05118362233 0.38976943493 -1.1542506218
          -0.16526469588 1.0409346819 -0.81332564354 -0.41938593984 0.48069638014 -1.1054626703
          -1.0188446045 -1.2259545326 -0.62498819828 -1.295919776 0.69114637375 -1.0898133516
          -0.85906726122 -1.3269705772 -1.3225798607 0.8340935111 0.42349588871 -1.1245695353
          -0.63316500187 -0.47268792987 0.17665021122 0.064686030149 -0.82907187939 -1.4710438251
          -0.19123347104 0.36496728659 -1.3751941919 -1.4352219105 -1.1061016321 -1.6318830252
          -0.6356306076 -0.85737365484 0.68417143822 -1.421967864 -0.45697802305 -1.6621146202
          -1.7288124561 0.17910318077 -1.1052148342 -1.9014861584 -1.4788066149 -0.29395088553
          0.24507671595 -0.84640848637 -0.65976816416 -1.888119936 -1.0889669657 -0.039330486208
          -1.8284437656 0.26433163881 -1.8969858885 -1.9808206558 -0.86372709274 -1.1176604033
          -1.9855694771 -0.57856458426 0.04799451679 0.25118485093 -1.816296339 -2.3700184822
          -2.2067468166 -1.4840704203 -2.3053526878 0.36266830564 -2.3519742489 -1.1342583895
          -1.6438238621 -0.93443334103 -1.4361083508 -0.50117921829 -2.2587406635 -0.12656258047
          -2.3197257519 -2.3784022331 -1.1751629114 -0.052868321538 -2.6280312538 -0.80639582872
          -1.5067796707 0.2623924315 -2.6819517612 -2.6576142311 -1.7451297045 -2.1873235703
          -2.7207627296 -1.4355494976 -1.1079846621 -2.7205524445 -0.48452550173 -1.893189311
          -2.7347619534 -0.27394539118 -2.7099990845 -2.1038496494 -0.11177315563 -2.6220242977
          -2.8579206467 -2.5022826195 -3.130749464 -0.93208920956 -2.9038302898 -1.5536353588
          -1.9663490057 -2.9525899887 -2.320994854 -2.4141702652 -2.9442305565 -1.8345803022
          -1.3908259869 -0.51595973969 -2.8911185265 -0.81599724293 -2.8393332958 -0.16607312858
          -2.4242928028 -2.7842988968 -2.8344857693 -2.5041596889 -2.9414482117 -3.0751545429
          -2.5726661682 -2.6684560776 -3.0746846199 -1.3337128162 -2.3729083538 -1.8901537657
          -1.086330533 -3.0554130077 -2.6857688427 -2.6220479012 -1.0081425905 -2.9836881161
          -0.63136774302 -2.3136434555 -2.9206986427 -1.7125189304 -3.0372190475 -2.6879405975
          -2.9374947548 -3.0874717236 -3.1680967808 -2.7705390453 -2.8182673454 -3.1362895966
          -2.8355784416 -3.0969483852 -2.7447590828 -1.5777142048 -1.2896028757 -2.7423529625
          -2.3155059814 -3.01054883 -1.0711531639 -2.9293138981 -2.9733521938 -2.7577884197
          -2.7147605419 -3.0187213421 -2.9095191956 -3.1608331203 -2.8575904369 -2.0395731926
          -3.1517348289 -2.843988657 -2.9693264961 -3.1059072018 -2.8884515762 -1.5790508986
          -3.0431909561 -1.8987958431 -1.3339015245 -2.599230051 -2.9383795261 -2.8581032753
          -2.9903843403 -2.994379282 -2.9988801479 -2.8850493431 -3.0070786476 -2.9766812325
          -3.1560192108 -2.9916641712 -2.9819643497 -3.0183415413 -3.1078550816 -3.1778516769
          -2.3091473579 -2.9366970062 -2.029103756 -2.9945635796 -3.0808963776 -3.1999304295
          -1.6645923853 -3.0826735497 -2.9692883492 -2.8216638565 -3.2089793682 -2.9821469784
          -3.1409356594 -3.087113142 -3.0442581177 -3.0818002224 -3.0111076832 -3.1165964603
          -3.1446681023 -3.2690067291 -3.1736941338 -3.2787253857 -2.4929749966 -2.0587882996
          -2.9973130226 -3.2357165813 -2.6874196529 -3.1200191975 -3.1097128391 -3.1833260059
          -3.4068441391 -3.024065733 -2.957955122 -3.1093943119 -3.3188209534 -3.1735277176
          -3.2221128941 -2.9385855198 -3.0796122551 -2.4687285423 -3.0768129826 -3.4275417328
          -3.2166247368 -3.2913928032 -3.4510712624 -3.2576031685 -3.0733134747 -3.107514143
          -3.3551907539 -3.3034124374 -3.3128759861 -3.1546311378 -3.2351512909 -3.0754816532
          -3.4814014435 -3.5974764824 -3.2002441883 -3.0375957489 -2.9058816433 -3.3721938133
          -3.2715299129 -3.1443226337 -3.1901774406 -3.6213760376 -3.3520030975 -3.6586310863
          -3.3770124912 -3.2384953499 -3.652567625 -3.1723432541 -3.5371870995 -3.3708891869
          -3.1793379784 -3.5578041077 -3.8395409584 -3.337924242 -3.5432507992 -3.8106834888
          -3.1873612404 -3.7025647163 -3.2149147987 -3.5305907726 -3.3381171227 -3.1980335712
          -3.8903942108 -3.5302410126 -3.9345786572 -3.2150957584 -3.9694690704 -3.8523378372
          -3.5010557175 -3.8028280735 -3.2607047558 -3.7584543228 -3.2436797619 -3.0746922493
          -4.1223750114 -3.3261806965 -4.1808781624 -3.7394523621 -3.0673565865 -3.5289523602
          -4.1807217598 -3.7092139721 -4.1695632935 -4.2621145248 -3.7141525745 -3.5184431076
          -4.2322621346 -3.3557393551 -3.70053339 -4.4794573784 -4.1294908524 -3.1712608337
          -3.3455350399 -3.3465828896 -3.1793067455 -3.9728503227 -4.3457932472 -4.5709848404
          -3.529365778 -3.7244226933 -3.9435939789 -3.9386293888 -4.8088135719 -3.9133141041
          -4.3004722595 -4.8611679077 -3.768499136 -4.5120882988 -4.63950634 -3.3568189144
          -3.2388868332 -3.4877970219 -3.9801855087 -3.5483071804 -4.4183950424 -4.4426956177
          -3.7005336285 -4.8677873611 -4.3125739098 -4.0415349007 -4.2056369781 -3.9245214462
          -5.0946440697 -4.5183081627 -5.0681643486 -4.2024154663 -4.2871422768 -3.6522452831
          -3.3865966797 -3.6062445641 -4.179684639 -4.9132385254 -4.3166413307 -3.8862571716
          -4.6444745064 -4.3065299988 -4.6554832458 -4.5145072937 -4.1869244576 -4.4952139854
          -5.1364455223 -4.8121991158 -4.400639534 -3.8801622391 -3.69460392 -5.0350184441
          -4.4750466347 -4.1064291 -4.2617344856 -3.9722073078 -4.8822007179 -4.5147752762
          -4.7916593552 -4.6872663498 -3.9893727303 -4.7578315735 -4.0906829834 -4.8888673782
          -4.4714074135 -4.3898468018 -4.4377980232 -4.7013983727 -4.5627298355 -4.1286606789
          -3.9599742889 -4.980556488 -4.6908006668 -4.4677500725 -3.7037649155 -4.2390890121
          -3.6421144009 -3.7686731815 -4.6553063393 -4.6951603889 -5.1941180229 -3.4010500908
          -3.4615101814 -4.4995651245 -4.8941984177 -3.7585475445 -4.0809378624 -5.1839437485
          -4.0163083076 -4.2946381569 -4.5331759453 -4.2884736061 -4.3362345695 -3.2628440857
          -4.9442243576 -4.889670372 -4.4886331558 -3.955706358 -2.9641368389 -4.5685796738
          -2.9095420837 -4.9122543335 -3.0312814713 -3.0079038143 -4.3071122169 -3.2324237823
          -4.5241127014 -4.8564357758 -4.4596037865 -3.8405423164 -3.6408412457 -4.520591259
          -4.3687925339 -2.867092371 -3.9684197903 -2.6582140923 -4.1877651215 -4.2451229095
          -3.760648489 -2.5841937065 -2.6599025726 -4.1810669899 -2.9850056171 -2.6888997555
          -4.3159818649 -4.3035354614 -3.8945081234 -3.4681396484 -4.3350925446 -3.9665894508
          -4.0964221954 -3.5863339901 -2.6189515591 -3.4657454491 -3.9264042377 -2.5811262131
          -3.9952571392 -2.5902810097 -3.3879230022 -2.7874467373 -3.556440115 -4.1257100105
          -3.3778457642 -2.6384623051 -3.9353187084 -3.6561608315 -3.2531456947 -4.1480641365
          -3.8806433678 -3.3802073002 -3.7887265682 -3.9431331158 -4.1864705086 -2.6072559357
          -2.8900892735 -3.6712052822 -4.3928852081 -2.5019288063 -2.6019597054 -2.4066898823
          -3.3857147694 -2.6632227898 -3.6986379623 -2.7575290203 -2.7495555878 -3.4214625359
          -4.087975502 -4.4187636375 -4.2656202316 -2.9247913361 -4.7892608643 -2.9938156605
          -4.6190180779 -4.1187067032 -4.3440861702 -2.6260113716 -2.6515333652 -4.0161547661
          -2.6008028984 -4.6817984581 -2.4075260162 -1.9739224911 -3.218747139 -1.4297300577
          -2.9907264709 -3.3711342812 -4.4963741302 -2.0207977295 -2.5543131828 -5.4041590691
          -2.6522278786 -4.5122413635 -2.8410089016 -7.4582390785 -5.701833725 -4.7690019608
          -2.9514904022 -2.6083230972 -2.5926113129 -2.5906345844 -2.4760015011 -1.9840445518
          -4.0646071434 -2.8119494915 -0.57308089733 -2.6337358952 0.87211298943 -2.6662700176
          -3.8755500317 -5.5438818932 -2.7039773464 -2.5728545189 -10.57336235 -9.5158233643
          -7.4002327919 -2.3948633671 -2.8787612915 -5.349363327 0.15898945928 -2.4862458706
          -2.5946171284 -1.9861323833 -2.7645595074 -2.6241919994 -9.4174060822 -1.3118203878
          -2.6000699997 -10.519289017 -1.9751882553 -3.8300001621 -2.5805225372 -2.6443212032
          -2.3927054405 0.91967540979 -0.56487190723 -2.6148433685 -1.9454472065 -2.625975132
          -2.4681324959 -2.6019155979 -2.6139454842
        </DataArray>
        <DataArray type="Float32" Name="VELOCITY" NumberOfComponents="3" ComponentName0="X-VELOCITY" ComponentName1="Y-VELOCITY" ComponentName2="Z-VELOCITY" format="ascii" RangeMin="0" RangeMax="8.1061868151">
          0 0 0 0 0 0
          3.8687036037 0.04870569706 0 5.2606601715 0.19922277331 0
          3.8490581512 0.17070257664 0 5.7148318291 0.26154816151 0
          0 0 0 5.4940757751 0.074041455984 0
          4.3285565376 0.072529539466 0 5.4048595428 0.071871295571 0
          0 0 0 5.4698243141 0.079797357321 0
          5.5090565681 0.087121404707 0 5.4605507851 0.099529497325 0
          4.3194088936 0.03485975787 0 5.4597759247 0.049636963755 0
          0 0 0 5.4172668457 0.093772150576 0
          5.2493081093 0.028687791899 0 5.3563666344 0.080301858485 0
          5.4684062004 0.076743975282 0 4.2653779984 -0.021969322115 0
          5.3119297028 0.068343043327 0 0 0 0
          5.2894768715 0.060597665608 0 5.5799655914 0.039725150913 0
          5.2404332161 0.043455921113 0 5.2787280083 -0.022713543847 0
          5.2378425598 0.041834302247 0 4.3061995506 -0.019067941234 0
          5.2580928802 0.044760860503 0 5.2375750542 0.030251096934 0
          5.2911572456 0.038116820157 0 0 0 0
          5.3488783836 0.040077734739 0 5.2506942749 0.034184996039 0
          5.2620606422 0.042429096997 0 5.6803269386 0.018246976659 0
          5.2930912971 0.043801523745 0 5.2953128815 -0.0082711270079 0
          4.2938137054 -0.0046311193146 0 5.3212995529 0.0440476574 0
          0 0 0 5.3422346115 0.040978003293 0
          5.2304782867 0.033565808088 0 5.2885389328 0.031931079924 0
          5.2551279068 0.031552821398 0 5.7062501907 0.023255454376 0
          5.282330513 0.031445235014 0 5.3076338768 0.034181371331 0
          5.3464412689 -0.0085490327328 0 5.3245081902 0.034712836146 0
          5.3351454735 0.034575656056 0 4.250184536 0.024206189439 0
          5.295071125 0.026623003185 0 5.7278079987 0.01281414181 0
          5.3175363541 0.028295569122 0 0 0 0
          5.3438472748 0.030729414895 0 5.2548003197 0.016871772707 0
          5.2716426849 0.021879129112 0 5.325928688 0.029524484649 0
          5.2283964157 0.014184695669 0 5.2914605141 -0.0089141894132 0
          5.3317165375 0.028872124851 0 3.9396357536 -0.00062785117188 0
          5.3366370201 0.02707920596 0 5.3202495575 0.024793775752 0
          5.2345981598 0.012851350009 0 5.3119721413 0.023442005739 0
          5.320022583 0.024140067399 0 5.3182592392 0.024510838091 0
          0 0 0 5.3395695686 0.023625120521 0
          5.7457170486 0.025647273287 0 5.2996435165 0.021184356883 0
          5.2980217934 -0.013319075108 0 5.231300354 0.012848183513 0
          5.3232712746 0.021177340299 0 5.2767896652 0.017218168825 0
          4.0086321831 -0.012166365981 0 5.3268933296 0.017991114408 0
          5.3109178543 0.019113540649 0 5.311563015 0.017361206934 0
          5.3069815636 0.019666159526 0 5.2454695702 0.012406197377 0
          5.3096199036 0.01519768592 0 0 0 0
          5.3308405876 0.015135394409 0 5.7756648064 0.0049810823984 0
          5.3168292046 0.016663070768 0 5.3045120239 0.011118225753 0
          5.3254666328 0.0036104295868 0 5.2260990143 0.0083971302956 0
          5.2844047546 0.01333139278 0 5.2891116142 0.0052424226888 0
          3.997086525 -0.011856215075 0 5.3262271881 0.013054407202 0
          5.3212413788 0.013696909882 0 5.3143401146 0.014984773472 0
          5.3099102974 0.015121984296 0 5.3069310188 0.014473839663 0
          5.3023662567 0.017178086564 0 5.7804999352 0.0077353850938 0
          5.2630109787 -0.0028678299859 0 5.3091115952 0.011579836719 0
          0 0 0 5.3287000656 0.010267273523 0
          5.3101873398 0.0084248129278 0 5.3567137718 -0.0097706932575 0
          5.2150702477 -0.021128857508 0 5.3164405823 0.012586603872 0
          5.3087377548 0.0018922246527 0 4.0094456673 -0.042787309736 0
          5.3222088814 0.0076055452228 0 5.3010458946 0.014531198889 0
          5.3040122986 0.01101353392 0 5.312664032 0.012694131583 0
          5.3142046928 0.012707366608 0 5.1536579132 -0.00025755938259 0
          5.2961235046 -0.0048788837157 0 5.7773828506 0.053750481457 0
          5.3063726425 0.006469973363 0 5.3162226677 0.0084504233673 0
          0 0 0 5.3284535408 0.0037556830794 0
          5.4320511818 -9.3472190201e-005 0 5.306406498 0.0019759074785 0
          5.3079528809 0.010301453061 0 4.3707618713 0.013370105997 0
          5.2639279366 -0.021610241383 0 5.325211525 0.0017949565081 0
          5.3041930199 0.013797533698 0 5.3106398582 -0.0054186256602 0
          5.3156900406 0.011549091898 0 5.2028298378 -0.033354494721 0
          5.3065304756 0.010927784257 0 5.3096289635 0.0066220564768 0
          5.3071813583 0.012674746104 0 5.312297821 0.0053673139773 0
          0 0 0 5.3455061913 -0.0075743282214 0
          5.1914286613 -0.044676024467 0 5.833176136 0.073587268591 0
          5.3232984543 -0.00072806334356 0 5.3023562431 0.0094711463898 0
          5.3111376762 -0.00081028795103 0 5.3123617172 -0.013890165836 0
          5.3069000244 0.012607282028 0 5.3082337379 0.0069707999937 0
          5.3163924217 0.012270337902 0 4.2690763474 -0.065387971699 0
          5.3436317444 -0.0088450955227 0 5.3070831299 -0.022001575679 0
          5.3264169693 -0.00078134826617 0 5.3080768585 0.012488181703 0
          5.3012228012 0.0096798762679 0 5.0916514397 -0.078419886529 0
          5.3198366165 0.0040685981512 0 0 0 0
          5.3431282043 -0.012977557257 0 5.296312809 0.014326852746 0
          5.3177633286 -0.0061422516592 0 5.3383803368 -0.0076891346835 0
          5.3073339462 -0.029744915664 0 5.7879953384 0.17712120712 0
          5.2999410629 -0.037505991757 0 4.0596294403 -0.024579847232 0
          5.3147349358 0.0087889255956 0 5.2751131058 -0.051313154399 0
          5.3140769005 -0.014511603862 0 5.3190126419 0.013724967837 0
          5.3279910088 -0.02342345193 0 5.3202280998 -0.0018477271078 0
          5.2856712341 -0.057862192392 0 5.3348350525 -0.0008068474126 0
          5.2042584419 -0.038621220738 0 5.3130025864 0.015877943486 0
          5.294172287 0.01690800488 0 0 0 0
          5.2758011818 -0.011123727076 0 5.2542243004 -0.029764203355 0
          5.3168306351 0.010355105624 0 5.328681469 0.0054071466438 0
          5.3318872452 -0.0062430938706 0 5.683795929 0.23782223463 0
          5.3399825096 -0.035088419914 0 5.2537817955 -0.011495003477 0
          5.3233270645 0.0016299559502 0 5.2107892036 -0.050785917789 0
          5.2614212036 -0.08323250711 0 5.2558574677 -0.01834879443 0
          5.3139734268 0.012493909337 0 5.2445273399 -0.050018373877 0
          5.343875885 -0.023151721805 0 5.2388091087 0.007977835834 0
          5.3224635124 0.012709254399 0 5.2932696342 0.021387809888 0
          5.334830761 -0.066657759249 0 5.1941337585 -0.091359347105 0
          5.3223018646 0.016000816599 0 5.2507719994 0.010538449511 0
          5.3183412552 0.021896068007 0 0 0 0
          5.3370542526 -0.050874955952 0 4.6972732544 0.1708778739 0
          5.3149795532 0.015214648098 0 5.2238016129 -0.12196211517 0
          5.3302688599 0.01219105348 0 5.2617478371 -0.040473591536 0
          5.3562788963 -0.05254169926 0 5.289999485 -0.020127471536 0
          5.3404321671 0.011157923378 0 5.3482532501 -0.0045967511833 0
          5.2208800316 -0.036049265414 0 5.2476725578 0.0088800517842 0
          5.317843914 -0.10909676552 0 5.1604762077 -0.11004618555 0
          5.3832945824 -0.053601246327 0 5.3136692047 0.014130664058 0
          5.3321814537 0.015185928904 0 5.2864861488 0.032038368285 0
          5.3045883179 -0.022052943707 0 5.2541737556 0.018938478082 0
          5.2373518944 -0.0072179478593 0 5.3676609993 -0.025893149897 0
          5.1759819984 -0.1553542316 0 5.3251228333 0.022811833769 0
          5.3674173355 -0.094352543354 0 5.0698504448 0.061174936593 0
          5.415327549 -0.031616162509 0 0 0 0
          5.208111763 0.013630621135 0 5.3571186066 0.014842975885 0
          5.3344225883 0.017614532262 0 5.1765370369 -0.033558130264 0
          5.2799363136 -0.15994414687 0 5.4525299072 -0.061579093337 0
          5.3238506317 0.034712355584 0 5.2640538216 0.019494278356 0
          5.1190609932 -0.12494082004 0 5.3921375275 -0.060296095908 0
          5.3743863106 0.0010906042298 0 5.1127610207 -0.19078822434 0
          5.3636674881 -0.14979206026 0 5.2258734703 0.015378018841 0
          5.3487014771 0.032954871655 0 4.7166657448 0.022891705856 0
          5.3330173492 0.012536677532 0 5.4994707108 0.010299150832 0
          5.4870100021 -0.028492521495 0 5.2786517143 0.019827304408 0
          5.2777748108 0.042720425874 0 5.2174005508 -0.21909169853 0
          5.2124886513 0.022252740338 0 5.5447678566 -0.00023750892433 0
          5.4034605026 -0.021936502308 0 5.3258609772 0.034736648202 0
          5.0540976524 -0.053317237645 0 5.4189486504 -0.11406128854 0
          5.3746390343 0.032306786627 0 0 0 0
          5.6988911629 -0.20319081843 0 5.5813531876 0.013406742364 0
          5.5684652328 -0.020620048046 0 5.1993393898 0.020664956421 0
          5.3396444321 -0.22313962877 0 5.3251442909 0.052859380841 0
          5.4503760338 -0.011458143592 0 5.2991361618 0.021265838295 0
          5.0297217369 -0.23806284368 0 5.0496664047 -0.15816479921 0
          5.1430068016 -0.27016746998 0 5.4422678947 -0.064145520329 0
          5.6034173965 0.025267830119 0 5.4114899635 0.021515617147 0
          5.3500227928 0.014221274294 0 4.6321206093 -0.03400773555 0
          5.3621139526 0.058101840317 0 5.4116411209 0.018425481394 0
          5.4401321411 -0.18674908578 0 5.3193531036 -0.12807396054 0
          5.2654109001 0.053619999439 0 5.2103171349 0.033495891839 0
          5.4478802681 0.055322583765 0 5.3189253807 0.050790816545 0
          5.6254878044 0.029340051115 0 5.2791934013 -0.30405560136 0
          5.458211422 -0.0027867397293 0 5.4850378036 -0.12720640004 0
          5.4005522728 0.064263634384 0 4.3514494896 0.0011858789949 0
          0 0 0 4.9912748337 -0.11685328931 0
          5.490046978 0.054013073444 0 5.3219604492 0.080441899598 0
          4.0645051003 -0.15837837756 0 5.6281609535 0.013572432101 0
          4.3883748055 -0.025255281478 0 5.1195549965 -0.37314552069 0
          4.93349123 -0.31958398223 0 5.2591710091 0.03787457943 0
          5.5167193413 -0.049124807119 0 4.4358758926 0.021549893543 0
          5.4571766853 0.060472030193 0 5.2241063118 0.025532323867 0
          5.5219020844 0.046502213925 0 5.3644022942 0.0085639739409 0
          5.4649415016 -0.28363001347 0 4.5833559036 -0.046816520393 0
          5.2579646111 0.067525416613 0 5.3697247505 0.097197122872 0
          4.33543396 0.029615260661 0 5.5351867676 -0.20787207782 0
          4.9015407562 -0.24762603641 0 5.6287488937 0.026771020144 0
          4.2582464218 0.041046984494 0 5.2977495193 0.073982857168 0
          5.3883304596 -0.37288278341 0 5.5133185387 0.050500154495 0
          5.5340147018 0.039965782315 0 5.5891919136 -0.12400127947 0
          5.4248251915 0.11615863442 0 0 0 0
          0 0 0 0 0 0
          0 0 0 4.895637989 -0.17074351013 0
          4.1851248741 0.036508463323 0 0 0 0
          5.3074231148 0.11868987232 0 5.5838532448 0.021834569052 0
          5.3054914474 0.033097289503 0 5.0024623871 -0.45264494419 0
          5.6593756676 -0.030580161139 0 5.188457489 0.046916350722 0
          4.8273053169 -0.39601883292 0 0 0 0
          5.3724145889 0.011007975787 0 5.6280474663 -0.014891648665 0
          5.632080555 -0.23383255303 0 4.0961174965 0.031618330628 0
          5.508023262 0.12573070824 0 4.4111566544 -0.060261420906 0
          4.7790617943 -0.29668456316 0 5.2425751686 0.077323764563 0
          5.363008976 0.15161195397 0 0 0 0
          5.3201646805 -0.47096389532 0 5.595369339 -0.36523744464 0
          0 0 0 5.2678833008 0.10873162001 0
          3.8493885994 0.017278332263 0 0 0 0
          5.4350976944 0.18600378931 0 5.6250252724 0.11153133214 0
          5.5136599541 0.059636980295 0 5.7413654327 -0.0935536623 0
          4.7906064987 -0.20546846092 0 5.4420156479 -0.037019658834 0
          0 0 0 5.2791438103 0.16808670759 0
          5.3553209305 -0.0033865368459 0 5.1154007912 0.091968163848 0
          3.9313087463 0.052252992988 0 4.7027368546 -0.45177793503 0
          5.8802146912 0.034753058106 0 4.257437706 -0.085454747081 0
          5.753636837 0.069731973112 0 0 0 0
          5.5422897339 0.21830786765 0 5.8173604012 -0.2072045058 0
          5.2196836472 0.10132598877 0 5.3130383492 -0.54307848215 0
          4.603823185 -0.36261239648 0 5.3384804726 0.22470928729 0
          4.8714241982 -0.55244374275 0 5.642812252 -0.44210186601 0
          5.2222948074 0.14567027986 0 0 0 0
          5.6954808235 0.19618596137 0 3.249332428 0.029668178409 0
          0 0 0 5.4359154701 0.27936303616 0
          4.6634988785 -0.23236827552 0 5.9075264931 -0.015814475715 0
          5.9353356361 -0.077298797667 0 5.1638188362 0.079026445746 0
          5.2293977737 0.22341416776 0 5.878724575 -0.29615244269 0
          4.6388731003 -0.51688534021 0 5.3188157082 0.010259721428 0
          3.8860189915 -0.0058786091395 0 0 0 0
          5.275539875 -0.55407387018 0 4.1224951744 -0.077154055238 0
          5.2785372734 0.28683486581 0 5.8709959984 0.16522364318 0
          5.5688433647 0.32071280479 0 5.1917982101 0.1147370562 0