<?xml version="1.0"?>
<VTKFile type="PolyData" version="0.1" byte_order="LittleEndian" compressor="vtkZLibDataCompressor">
  <PolyData>
    <Piece NumberOfPoints="1041" NumberOfVerts="0" NumberOfLines="0" NumberOfStrips="0" NumberOfPolys="1940">
      <PointData>
        <DataArray type="Float32" Name="PRESSURE" format="ascii" RangeMin="-7.6891860962" RangeMax="3.870017767">
          0 1.0822941065 0 0.66266673803 1.0448218584 0
          0.7684314847 0.33340373635 1.1387428045 0.61393350363 1.0707819462 0
          0.41115441918 0.16744093597 1.1468676329 0.67801934481 1.1001704931 0
          0.76928943396 0.29863139987 0.46458640695 0.95885437727 0.15434409678 0.8077018857
          0 0.62494945526 0.36938124895 0.75099372864 0.23420859873 0.78094851971
          0.12053741515 0.47341829538 0 0.64251321554 0.55767852068 0.38122266531
          0.3071333468 0.65392100811 0.20261138678 0.66732048988 0.59520506859 0.099678754807
          0.55725228786 0 0.49193933606 0.5677408576 0.42059454322 0.65500855446
          0.34209555387 0.256039083 0.75139200687 0.16822873056 0.079702675343 0.81081092358
          0.36686941981 0.63307183981 0.29584017396 1.0779514313 0 0.55566370487
          0.42803236842 0.22250524163 0.49390488863 0.68674486876 0.13845358789 0.86007678509
          0.067162208259 0.33004495502 0.51400268078 0.38712087274 0.20335827768 0.26851344109
          0.89525574446 0 0.61637479067 0.4312081635 0.76931160688 0.56351560354
          0.13604533672 0.46785393357 0.70696759224 0.067035458982 0.25457960367 0.35948896408
          0.30931121111 0.49804282188 0.39790171385 0.85427421331 0 0.61073714495
          0.19226187468 0.43401715159 0.6371242404 0.50846648216 0.51226377487 0.46251088381
          0.60164505243 0.052155598998 0.1239412874 0.2441585511 0.2912606895 0.37519088387
          0.33757805824 0.51890003681 0.47593232989 0.40844985843 0.70049792528 0
          0.4348705709 0.38622063398 0.49906224012 0.20668466389 0.45067152381 0.11179680377
          0.068034894764 0.36656728387 0.39613211155 0.33351674676 0.28297618032 0.46207693219
          0.45370087028 0.4600225687 0.42055028677 0.14022736251 0.092910043895 0
          0.24941767752 0.4392491281 0.25595411658 -0.13656243682 0.44196614623 0.079197451472
          0.38739424944 0.45089656115 0.36559569836 0.47737073898 0.41007694602 0.20860402286
          0.33830657601 0.42825242877 0.33593070507 0 0.40813788772 0.34802421927
          0.15790759027 0.31049704552 0.44315990806 0.45730051398 0.40765041113 0.27741825581
          0.39289018512 -0.3585409224 0.088429264724 0.45185300708 0.23519828916 0.42346855998
          0.35422980785 0.26633858681 0.43769088387 -0.3025676012 0 0.38187509775
          0.45026084781 0.17884090543 0.41969332099 0.31424805522 0.45398339629 -1.3302856684
          0.35296049714 0.27680230141 0.10155783594 0.41844314337 0.45655736327 0.25880739093
          0.44715031981 0.32106521726 0.40829181671 0.43309879303 0.41073814034 0.012368870899
          0 0.44322824478 0.39889967442 0.4458604753 0.45773327351 0.27124649286
          0.46470108628 0.2270744592 0.38155454397 0.40264883637 0.46484959126 0.11781995744
          0.4186783433 0.39585596323 0.46854880452 0.34683039784 0.41784024239 0.42602613568
          0.47619792819 0.4581207335 0.43163740635 0.40286877751 0.44062545896 0.23750701547
          0 0.5946868062 0.42859476805 0.47984948754 0.43877568841 0.33767366409
          0.4824642539 0.25262403488 0.45559594035 0.46899265051 0.40004861355 0.44648438692
          0.49282515049 0.48274260759 0.11322007328 0.43517971039 0.44668102264 0.43161210418
          0.38329789042 0.46319317818 0.44083321095 0.48461082578 0.50891500711 0.43414899707
          0.50071871281 0.80203467607 0 1.0293402672 0.48438307643 0.4691080749
          0.43772003055 0.60509967804 0.51909071207 0.33771577477 0.44454523921 0.48100292683
          0.57562196255 0.50274014473 0.48342329264 0.55877697468 0.52342671156 0.5146459341
          0.45930063725 1.1381980181 0.44348821044 0.50913286209 0.25323989987 0.46850326657
          0.42466416955 0.55699366331 0.50835567713 0.54654538631 0.50307393074 0.433881253
          0.83753818274 0.52488231659 0.47855308652 1.0491542816 0 0.56057095528
          0.56787347794 0.52310365438 0.55500209332 0.4482973516 0.47991502285 0.43783634901
          0.63310569525 0.71683627367 0.59641325474 0.52435815334 0.5768545866 0.49998602271
          0.42172917724 0.96143400669 0.46971529722 0.643029809 0.55153650045 0.63889437914
          0.41507148743 0.49477395415 0.64004540443 0.43185958266 0.54220324755 0.59050518274
          0.52211672068 0.54675626755 0.49398577213 0 0.86320316792 0.85157233477
          0.62109935284 0.45634144545 0.9817122817 0.60117793083 0.9727229476 0.63294816017
          0.68362545967 0.36727827787 0.54399549961 0.876321733 0.51835292578 0.49921935797
          0.65764689445 0.40730029345 0.58613592386 0.89464557171 0.39639660716 0.48490345478
          0.79397088289 0.57378029823 0.76390177011 0.50056731701 0.70006930828 0.43392753601
          0.6122725606 0.59701013565 0.54284900427 0.56815558672 0.51279109716 0
          0.90421158075 0.87035691738 0.78570151329 0.80959284306 0.5837906599 0.81222528219
          0.46959587932 0.73549425602 0.35598629713 0.67663913965 0.48027268052 0.33268177509
          0.72022157907 0.83336609602 0.33950418234 0.56572389603 0.59119844437 0.71337610483
          0.54004377127 0.88474565744 0.7630032897 0.40076807141 0.50465774536 0.73507618904
          0.64692401886 0.61652582884 0.63712406158 0.44673389196 0.47316247225 0.85358715057
          0.53515487909 0.56470537186 0.62978249788 0.58773630857 0.7910720706 0.40980601311
          0.60396468639 0.49363681674 0.3537723124 0.1623993814 0.80858558416 0.73936867714
          0.31824579835 0.78327208757 0.58472788334 0.82118564844 0.56283521652 0.60922634602
          0.41478055716 0.66725593805 0.77317279577 0.53496581316 0.70520424843 0.64143174887
          0.47547230124 0.61175352335 0.58359068632 0.71552497149 0.69050633907 0.5636664629
          0.80422067642 0.60398751497 0.21169365942 0.1520819664 0.52922141552 0.62877464294
          0.73664587736 0.35050466657 0.15783107281 1.4090241194 0.68361514807 0.73260593414
          0.5612616539 0.60351639986 0.58885556459 0.44484624267 0.62103366852 0.66214889288
          0.7759552598 -0.23204950988 0.57740950584 0.53317904472 0.70860624313 0.64615690708
          0.80368286371 0.60423696041 0.8517037034 0.076399825513 0.61814057827 0.3541675508
          0.59324735403 0.57938981056 -0.67541360855 0.29116660357 0.63647335768 0.37130227685
          0.68284338713 0.73808568716 0.93580532074 0.61831623316 0.75521677732 0.61341249943
          0.55903965235 0.63197022676 0.66469711065 -0.0085378615186 0.25422874093 -1.4592789412
          0.60257232189 1.1724584103 0.64889931679 0.70922493935 0.32766526937 0.62543350458
          0.74573493004 0.82022166252 0.63157272339 0.62539792061 0.59760415554 0.64269411564
          -0.69196403027 0.67566096783 0.96356743574 0.63518178463 0.63808721304 0.76699584723
          0.63990807533 0.64132875204 0.66060632467 0.59440350533 0.79714530706 0.69671112299
          0.85346406698 0.66102224588 -0.057506173849 0.93335032463 0.70688581467 0.64218741655
          0.64608252048 0.68017470837 0.65263384581 0.83220875263 0.6632399559 0.64795202017
          0.68307286501 0.70318537951 0.20901085436 0.65952306986 0.65072065592 0.77864038944
          0.66447383165 1.1396340132 0.65581101179 0.648663342 0.70265096426 0.67527163029
          0.76328670979 0.69541072845 0.82646822929 0.66348516941 1.1104133129 0.79128539562
          0.65936434269 0.65095001459 0.65396183729 0.75031709671 0.65456598997 0.93951576948
          0.67401301861 0.6500903368 0.68968009949 0.69421118498 0.74541777372 0.66424095631
          0.68377166986 1.0560870171 0.65016210079 0.66397249699 0.67392444611 0.64683878422
          1.0323801041 0.72805738449 0.65300571918 0.66020745039 0.87298458815 0.64902794361
          0.64920032024 0.61424976587 0.61471861601 0.88682937622 0.75318551064 0.64497929811
          0.65995621681 0.67999339104 0.69911885262 0.73263937235 0.65073168278 0.61282944679
          0.70691734552 0.58539545536 0.81029582024 0.63324660063 0.64526987076 0.6696690321
          0.67014014721 0.6544624567 0.79141920805 0.63557958603 0.70053613186 0.56403917074
          0.32515618205 0.71991401911 0.64694499969 0.55682569742 0.6393045187 0.72880327702
          0.63868075609 0.66134881973 0.68884778023 0.60924392939 0.64927315712 0.77971458435
          0.42676436901 0.35166761279 0.62136185169 0.53137350082 0.66977107525 0.65237951279
          0.49450346828 0.70673882961 0.79100441933 0.93692296743 0.6341676116 0.49610051513
          -0.046400692314 0.64455795288 0.57297116518 0.76603621244 0.6029420495 0.65702801943
          0.6418812871 0.69423431158 0.64570266008 0.7568629384 0.16308999062 0.89359384775
          0.32014453411 0.6264898777 0.66434103251 0.83912879229 0.34442943335 0.70744818449
          0.64719265699 1.064789772 0.52580136061 -0.53040486574 0.6429682374 0.63917976618
          0.58514845371 0.64786243439 0.70241105556 0.61227381229 0.80115318298 0.64013242722
          -0.49643605947 0.92293065786 0.62751436234 0.64281648397 0.77513033152 0.22490929067
          0.36977612972 0.63852471113 -1.1695604324 0.72873419523 0.54431402683 0.63825696707
          0.63869464397 0.58744132519 0.63871914148 0.64365190268 0.61269682646 0.62954115868
          0.67836749554 0.92990869284 0.6320477128 0.79727381468 0.23837277293 1.1725645065
          0.63092517853 0.64208489656 0.47299998999 0.64489638805 0.53355687857 0.55307340622
          0.64092725515 0.64753872156 0.59940415621 0.63485836983 0.62542933226 0.63107955456
          0.80625092983 0.62428075075 0.63235610723 0.64897435904 0.63008123636 0.64173191786
          0.90137982368 0.59449446201 0.65177559853 0.6582275629 0.41649752855 0.64611667395
          0.76199626923 0.48383724689 0.5434256196 0.61642158031 0.65666669607 0.62479716539
          0.63915795088 0.65208995342 0.65696001053 0.67601317167 0.61648201942 0.60262256861
          0.59750181437 0.66405588388 0.65789544582 0.62710219622 0.6672539711 0.6557393074
          0.55111050606 0.95772123337 0.66958957911 0.76295739412 1.2107752562 0.56894731522
          0.71931302547 0.65070772171 0.60582149029 0.6993444562 0.67068445683 0.70880782604
          0.70030760765 0.60846191645 0.8897895813 0.50442743301 0.64194446802 0.66798853874
          1.3028291464 0.57739549875 0.69442790747 0.66319185495 0.62536948919 0.68696081638
          0.99357247353 0.6839363575 0.50005352497 1.2310855389 0.73463881016 0.77900755405
          0.51186770201 0.65840601921 0.41185647249 0.67960548401 0.60197377205 0.87146872282
          0.91537046432 0.71500974894 0.64783632755 0.48019450903 1.1290284395 0.67772448063
          0.564258039 0.70582461357 0.6312314868 0.71518063545 0.67405754328 0.69283241034
          0.76163518429 1.0493093729 0.46860033274 1.0021805763 0.04137974605 0.66439664364
          0.66922152042 0.82339698076 0.20212833583 0.60588097572 0.69002121687 0.73191422224
          1.0538583994 0.66603434086 0.48810628057 0.69128113985 0.90490746498 0.70513105392
          0.54659920931 -0.65877771378 0.64606279135 0.14440891147 0.68139261007 1.0881080627
          0.69932496548 0.78720730543 0.94014149904 0.47380530834 -0.073531277478 0.68723011017
          0.85402089357 0.7425121069 0.72620022297 0.63176643848 0.69659537077 0.6811491251
          0.88882189989 1.0321911573 0.69750356674 0.36189523339 -0.064769521356 0.71210503578
          0.5922896266 0.6899793148 0.70358842611 1.0366483927 0.70703524351 0.89848190546
          -0.56331247091 0.62873804569 0.81174987555 0.70488399267 0.74947375059 0.70654344559
          0.70856964588 0.72204971313 0.91367709637 0.70403069258 0.70193433762 0.85275816917
          -0.17314991355 0.75147759914 0.74562698603 0.69976830482 0.72496110201 0.73616582155
          0.86055064201 0.69431352615 0.87243443727 0.7637091279 0.7542001009 0.71880424023
          0.70343309641 0.70194721222 0.81959891319 0.68105822802 0.77281087637 0.98301875591
          0.80850720406 0.73973351717 0.79541867971 0.67754524946 1.2079226971 0.71624499559
          0.68386077881 0.68221920729 0.88736510277 0.81744503975 0.68629997969 0.72384130955
          0.63143378496 0.81087481976 0.69324231148 0.69270002842 0.58449918032 1.1342029572
          0.93106508255 0.85377901793 1.2968412638 0.63633108139 0.88911110163 0.66542756557
          0.75245797634 0.69360858202 0.61087715626 0.61332732439 0.45971879363 0.62629491091
          1.0740513802 0.53435492516 0.72218775749 0.65346562862 0.44216811657 1.2080570459
          1.2151936293 0.86747974157 0.61933118105 0.89929556847 0.42688298225 0.73312097788
          0.79162156582 0.4559495151 0.47006565332 0.6287933588 0.50386804342 0.75600385666
          0.15521113575 0.49669846892 0.10197474062 0.50368499756 0.72610527277 0.94113785028
          1.1322249174 0.88561248779 0.68401628733 0.13227835298 0.46986705065 0.808827281
          0.16955120862 0.26438626647 0.11698740721 0.44290357828 0.7932510972 0.23807436228
          -0.29582348466 -0.23346535861 0.27445867658 0.86442571878 0.68432027102 -0.39343476295
          0.66310226917 0.30160966516 0.10019171983 0.86254888773 -0.31614792347 0.23029348254
          0.37942138314 -0.21534381807 -0.093147531152 0.13124467432 -0.49700430036 0.40158462524
          -0.9360845685 -0.032936185598 0.78619241714 0.57662159204 -1.117053628 1.0484650135
          0.98396605253 0.041343580931 -1.024746418 -0.10234560817 0.07729177177 0.82620495558
          -0.45645496249 -1.2076319456 -0.86661785841 -0.22310383618 0.029195087031 -1.1570082903
          -0.56437844038 -0.74680018425 -0.44006001949 -1.7426457405 1.2127811909 0.15666739643
          -1.789714098 0.89344114065 0.78407925367 -0.63849055767 -1.494330287 -0.59424585104
          -0.57736891508 0.40721035004 -0.68812841177 -1.1491024494 -1.4671666622 -0.93307876587
          -1.9013999701 -0.54335665703 -2.099647522 -1.5004290342 0.82798182964 -2.2406077385
          -1.2137135267 -0.20503813028 0.71202766895 -0.96336507797 -2.0555274487 0.45085045695
          -1.2796742916 -1.4914274216 -1.639898777 -2.2692422867 -1.2827414274 -1.0142700672
          -1.3714654446 -2.8893694878 -2.6753139496 -1.6235045195 -2.3784399033 -2.5662281513
          0.88702756166 -0.30446985364 -1.8193018436 -2.1763422489 0.48099923134 -1.4272506237
          0.051950380206 -2.0244607925 -2.8420939445 -1.8490370512 -1.751753211 -3.7398884296
          -1.6211684942 -3.8927183151 -1.5043956041 -3.3247468472 -2.0950367451 0.50595128536
          -2.5243930817 -3.9263987541 -0.1163834855 -0.39966782928 -2.1697063446 -1.544772625
          -2.3195135593 -1.1238968372 -1.6808063984 -1.9484614134 -1.6644479036 -4.1237273216
          -2.1310112476 -2.0653448105 -1.6618142128 -4.8614802361 -4.6343765259 -4.7164502144
          -2.2309277058 -4.5551834106 -0.069103591144 -3.7969918251 -2.0481944084 -0.64353597164
          -2.9279406071 -1.6417667866 -1.6207541227 -1.3948632479 -2.0715303421 -2.3905043602
          -1.4283545017 -1.9224073887 -1.4814038277 -4.5947523117 -2.8726935387 -2.2614388466
          -4.5902271271 -1.9157607555 -4.4803996086 -4.3459925652 -0.64006096125 -4.949203968
          -1.3930897713 -2.5891463757 -1.4480097294 -5.9213824272 -3.0958237648 -3.5359179974
          -2.2237029076 -1.4756603241 -3.2423143387 0.37302666903 -0.039666488767 -2.0997335911
          -3.3617150784 -4.5444092751 -4.0325350761 -4.4940662384 -4.3057789803 -4.2731952667
          -2.9623308182 -1.4793533087 -5.1570148468 -3.6307489872 -7.3411493301 -2.4784021378
          -7.2003650665 -0.14503078163 -3.8700964451 -3.807564497 0.041817732155 3.870017767
          0.39107361436 -4.5662908554 -1.9280894995 -3.5626096725 -7.6891860962 -4.8794360161
          -2.7642793655 -5.9307861328 -1.9367752075 -3.9389634132 3.8400785923 -5.0098576546
          -4.6173510551 0.035145010799 -4.3959965706 -7.2161140442 -4.0558781624 -4.5469994545
          -4.4273581505 -7.3370747566 -5.1639404297 -4.5596284866 -4.3043994904 -4.6057448387
          -4.2607536316 -4.4795646667 -4.5426545143
        </DataArray>
        <DataArray type="Float32" Name="VELOCITY" NumberOfComponents="3" ComponentName0="X-VELOCITY" ComponentName1="Y-VELOCITY" ComponentName2="Z-VELOCITY" format="ascii" RangeMin="0" RangeMax="8.0357294083">
          0 0 0 0 0 0
          4.2119865417 0.083384081721 0 5.6462664604 0.30477932096 0
          4.3653979301 0.24071723223 0 5.8974895477 0.36793854833 0
          0 0 0 5.307071209 0.088908694685 0
          4.9564819336 0.13033412397 0 5.3824391365 0.14090980589 0
          0 0 0 5.240085125 0.057860039175 0
          5.2714438438 0.12171795964 0 5.3011455536 0.11828613281 0
          5.0365777016 0.092842981219 0 5.2769932747 0.12389361113 0
          0 0 0 5.3393683434 0.089399635792 0
          5.2156872749 0.085960119963 0 5.2654037476 0.081323213875 0
          5.2335414886 0.083595208824 0 5.077278614 0.023150786757 0
          5.2928004265 0.072191976011 0 0 0 0
          5.3129372597 0.054535284638 0 5.2114138603 0.062648288906 0
          5.257171154 0.06835283339 0 5.2178320885 0.060510184616 0
          5.2787041664 0.06037388742 0 5.202375412 0.012545297854 0
          5.2952327728 0.053655855358 0 5.2353720665 0.053754832596 0
          5.3084445 0.039832603186 0 0 0 0
          5.2182745934 0.043900646269 0 5.2502474785 0.048329044133 0
          5.2626895905 0.04866829142 0 5.198112011 0.033711984754 0
          5.2781596184 0.045185908675 0 5.2093048096 0.02613536641 0
          5.2488541603 0.030023464933 0 5.2913422585 0.037535514683 0
          0 0 0 5.3010616302 0.027000548318 0
          5.2307715416 0.031245805323 0 5.2159061432 0.025352576748 0
          5.2423176765 0.03496536985 0 5.2006263733 0.012887711637 0
          5.2547969818 0.035514038056 0 5.2679133415 0.034889966249 0
          5.1791954041 0.0083840247244 0 5.2796344757 0.031165974215 0
          5.2902164459 0.026170685887 0 5.22468853 0.064801931381 0
          5.2512521744 0.027699777856 0 5.212993145 -0.013633862138 0
          5.2616281509 0.026817642152 0 0 0 0
          5.2969036102 0.017868394032 0 5.2197189331 0.010285443626 0
          5.2419037819 0.02362142317 0 5.2710237503 0.024151103571 0
          5.2320575714 0.018343331292 0 5.1483945847 -0.066005177796 0
          5.2810635567 0.020267909393 0 4.9183216095 -0.001405687537 0
          5.2886009216 0.016046557575 0 5.2571291924 0.020577050745 0
          5.2312607765 0.011387511156 0 5.2491879463 0.019343039021 0
          5.2728157043 0.017311563715 0 5.2647247314 0.018679283559 0
          0 0 0 5.2942123413 0.010350526311 0
          5.2559533119 -0.024135099724 0 5.2430796623 0.015670705587 0
          5.1649227142 -0.079984642565 0 5.229414463 0.00093933491735 0
          5.2802195549 0.012831352651 0 5.237651825 0.011406117119 0
          4.916159153 -0.082837812603 0 5.287027359 0.0077958805487 0
          5.2659730911 0.012776906602 0 5.253487587 0.014551005326 0
          5.2593584061 0.013927540742 0 5.2331910133 0.0038596277591 0
          5.2488059998 0.012893551961 0 0 0 0
          5.292552948 0.0037985148374 0 5.3124909401 -0.071215726435 0
          5.272960186 0.0082711521536 0 5.2445921898 0.0099231228232 0
          5.1911921501 -0.1337313652 0 5.2340602875 -0.0044228895567 0
          5.2478613853 -0.014277884737 0 5.2410049438 0.0055641131476 0
          4.7640404701 -0.094573363662 0 5.2874341011 0.00083068892127 0
          5.2799949646 0.0019112683367 0 5.2665243149 0.0061483699828 0
          5.2613611221 0.0079089999199 0 5.2519693375 0.0098236417398 0
          5.2560214996 0.009392795153 0 5.3889536858 -0.056895118207 0
          5.2390589714 8.5356557975e-005 0 5.2485136986 0.0083130970597 0
          0 0 0 5.2920975685 -0.0023826672696 0
          5.2457671165 0.0054654595442 0 5.2530670166 -0.15916544199 0
          5.2377839088 -0.0073499805294 0 5.2703948021 -0.00079736183397 0
          5.2441935539 0.00039227938396 0 4.6178059578 -0.14726014435 0
          5.2860417366 -0.0067142806947 0 5.253159523 0.0067490045913 0
          5.2507376671 0.0069953841157 0 5.2563829422 0.0048636836 0
          5.261346817 0.00098724325653 0 5.2428898811 -0.0038746879436 0
          5.2416701317 -0.0057184854522 0 5.480656147 -0.025253046304 0
          5.249320507 0.0057787559927 0 5.2780041695 -0.0084495972842 0
          0 0 0 5.2929730415 -0.00902146101 0
          5.3540887833 -0.11259530485 0 5.2491364479 0.0034178646747 0
          5.2638363838 -0.0056543117389 0 4.798306942 -0.092952005565 0
          5.2413444519 -0.017155209556 0 5.285545826 -0.014568002895 0
          5.2515597343 0.005485098809 0 5.25157547 0.0002345865505 0
          5.2529540062 0.0037973462604 0 5.2569360733 -0.0080772489309 0
          5.2504892349 0.0055506154895 0 5.2696843147 -0.011959648691 0
          5.2544317245 8.9515444415e-005 0 5.250213623 0.0045348587446 0
          0 0 0 5.2950706482 -0.017046909779 0
          5.2268939018 -0.027302574366 0 5.6240115166 -0.00043510788237 0
          5.2762899399 -0.019140796736 0 5.2567358017 -0.0058512990363 0
          5.2505254745 0.0030015269294 0 5.2555060387 -0.00027092211531 0
          5.2506966591 0.0053447452374 0 5.2604532242 -0.013197707944 0
          5.250629425 0.0042464258149 0 4.6097555161 -0.14805881679 0
          5.2863759995 -0.024549344555 0 5.2649788857 -0.0032318928279 0
          5.2656254768 -0.021498788148 0 5.2511253357 0.0051526129246 0
          5.2511835098 -0.0038004943635 0 5.1998853683 -0.033498317003 0
          5.2515354156 0.0041873771697 0 0 0 0
          5.3001732826 -0.027848448604 0 5.2496232986 0.0011488344753 0
          5.2523078918 0.0021732945461 0 5.2750015259 -0.02948272042 0
          5.2817983627 -0.00070373347262 0 5.8087506294 0.12623746693 0
          5.2557482719 -0.00059329543728 0 4.2970004082 -0.055271055549 0
          5.249587059 -0.010959830135 0 5.2649335861 0.010508839041 0
          5.2888350487 -0.037965334952 0 5.2503566742 0.0060406620614 0
          5.2546458244 0.0011541531421 0 5.2634711266 -0.03165281564 0
          5.2592878342 0.0011129475897 0 5.2529425621 -0.022801866755 0
          5.2623419762 0.013805354945 0 5.2520542145 0.0057014594786 0
          5.247961998 0.0047258352861 0 0 0 0
          5.2990441322 -0.038341455162 0 5.2801156044 0.021366870031 0
          5.2444391251 -0.0028988127597 0 5.2530908585 0.0042793196626 0
          5.2539615631 0.0029569175094 0 5.8759241104 0.2547160089 0
          5.2568898201 0.0027030564379 0 5.271270752 -0.046786800027 0
          5.2434120178 -0.018228108063 0 5.2494544983 -0.00859602727 0
          5.2627696991 0.0070555550046 0 5.2829475403 -0.049088899046 0
          5.2438759804 0.003208140377 0 5.281785965 0.020312372595 0
          5.2552804947 0.0031559290364 0 5.2519836426 -0.039784505963 0
          5.2378783226 -0.0090314894915 0 5.2489199638 0.0080231884494 0
          5.2582960129 0.0058413371444 0 5.2728533745 0.020473238081 0
          5.251871109 0.0076943659224 0 5.2399749756 -0.027581367642 0
          5.2536501884 0.0061888615601 0 0 0 0
          5.330368042 -0.075134195387 0 4.935005188 0.21616177261 0
          5.2463326454 0.0077623445541 0 5.2617778778 0.012029188685 0
          5.2363977432 0.00015687249834 0 5.3575472832 0.019740018994 0
          5.2558484077 0.0046639586799 0 5.2579069138 -0.063525795937 0
          5.2545394897 0.004448435735 0 5.2547855377 0.0036100957077 0
          5.2782330513 0.054807133973 0 5.2314453125 -0.018489301205 0
          5.2584075928 0.0095831621438 0 5.2702326775 0.033923473209 0
          5.3043708801 -0.096978105605 0 5.249414444 0.0098471902311 0
          5.2372684479 0.008526513353 0 5.2504940033 0.010734871961 0
          5.233569622 -0.055935643613 0 5.2286915779 -0.0060108113103 0
          5.2327113152 -0.042806357145 0 5.2548437119 0.0040376973338 0
          5.2598643303 0.021567491814 0 5.2543711662 0.0088756345212 0
          5.2553434372 0.0071638799272 0 5.2119865417 0.15958206356 0
          5.2268500328 -0.02837927267 0 0 0 0
          5.2241373062 -0.027719181031 0 5.2550797462 0.0037406245247 0
          5.2435851097 0.014459336177 0 5.268204689 0.083687193692 0
          5.2563204765 0.015326968394 0 5.2843589783 -0.10050416738 0
          5.2558264732 0.0065053920262 0 5.2271332741 0.0038445102982 0
          5.2535243034 0.049329936504 0 5.2542252541 0.0053427154198 0
          5.2546591759 0.0034728001337 0 5.2527952194 0.030031761155 0
          5.2537083626 0.01055484917 0 5.2182855606 -0.012811215594 0
          5.2562875748 0.0043247216381 0 5.102997303 0.072294421494 0
          5.2549061775 0.014106080867 0 5.2229003906 -0.050075337291 0
          5.2745137215 -0.056933294982 0 5.2273011208 0.015536663122 0
          5.2542228699 0.013534348458 0 5.2514209747 0.020311055705 0
          5.2203235626 -0.00010165830463 0 5.2137994766 -0.042193654925 0
          5.2536444664 0.0038065649569 0 5.2580661774 0.008631484583 0
          5.2043399811 0.06347323209 0 5.25258255 0.0073950141668 0
          5.2554593086 0.0027876992244 0 0 0 0
          5.7419848442 -0.31439700723 0 5.2101836205 -0.024812579155 0
          5.2815217972 -0.10793918371 0 5.2257714272 0.0084194438532 0
          5.2499084473 0.013922066428 0 5.2584590912 0.0051777921617 0
          5.3140802383 -0.099689938128 0 5.2331337929 0.023124454543 0
          5.2388367653 0.032496616244 0 5.2311005592 0.04423892498 0
          5.2451934814 0.023135572672 0 5.2520108223 0.0049348920584 0
          5.2103705406 -0.0047683906741 0 5.2539348602 0.0023323683999 0
          5.2666740417 0.019171625376 0 5.1239123344 0.020184449852 0
          5.2574439049 0.0022772615775 0 5.2244992256 -0.062688961625 0
          5.2497406006 0.0094925891608 0 5.6002573967 -0.24990344048 0
          5.2599964142 0.012781474739 0 5.2311897278 0.024527549744 0
          5.2173557281 -0.037109524012 0 5.2620797157 0.0063444338739 0
          5.2243142128 0.019605247304 0 5.2447013855 0.016650395468 0
          5.2519674301 0.0026896889322 0 5.2498383522 0.0063949618489 0
          5.2553052902 0.00081988872262 0 4.6176085472 -0.058673538268 0
          0 0 0 5.2150177956 0.043526574969 0
          5.2151145935 -0.012724281289 0 5.2604637146 0.001805752865 0
          4.5337619781 -0.2193338275 0 5.246732235 0.021367633715 0
          4.9725437164 -0.071538902819 0 5.2380309105 0.019599720836 0
          5.2287120819 0.025433626026 0 5.2230668068 0.039561755955 0
          5.2497105598 0.0036049259361 0 5.1107559204 -0.064446285367 0
          5.2527346611 0.00052448635688 0 5.2443623543 0.019402723759 0
          5.2073149681 0.010490523651 0 5.2811841965 0.016836192459 0
          5.2451496124 0.010372626595 0 5.2038440704 0.021439742297 0
          5.2674002647 0.010579294525 0 5.2575535774 -0.0010382039472 0
          5.1482362747 -0.033386692405 0 5.2466397285 0.0074270647019 0
          5.2144389153 0.025698775426 0 5.2847733498 0.055071040988 0
          5.1878662109 -0.012817791663 0 5.2659006119 0.001005807193 0
          5.2412524223 0.012386811897 0 5.2099766731 0.064936980605 0
          5.249994278 0.0010357558494 0 5.246992588 0.0046539041214 0
          5.2541270256 -0.0020095875952 0 0 0 0
          0 0 0 0 0 0
          0 0 0 5.2096166611 0.018558524549 0
          5.2072815895 -0.010464846157 0 0 0 0
          5.2613987923 -0.0032523733098 0 5.2417550087 0.05663786456 0
          5.2878432274 0.024449970573 0 5.2304868698 0.016512390226 0
          5.3807325363 0.036727193743 0 5.1920795441 0.044626668096 0
          5.2231707573 0.018694072962 0 0 0 0
          5.2973303795 0.014004456811 0 5.2473182678 0.0021544252522 0
          5.2441248894 0.0059167519212 0 5.1643404961 -0.016942255199 0
          5.2506694794 -0.0017414296744 0 5.1797027588 0.015189399943 0
          5.2141208649 0.016884919256 0 5.2748651505 -3.717240179e-005 0
          5.2564458847 -0.0053090155125 0 0 0 0
          5.2358732224 0.011726968922 0 5.2407097816 0.0075224740431 0
          0 0 0 5.2676739693 -0.006283077877 0
          4.9719452858 0.028531601653 0 0 0 0
          5.2518839836 -0.0050517371856 0 5.2475581169 -0.000688573753 0
          5.256629467 0.18270640075 0 5.2447023392 0.0030238539912 0
          5.2131390572 0.011260996573 0 5.3944611549 -0.011310539208 0
          0 0 0 5.2600917816 -0.0099239097908 0
          5.3030238152 -0.01195959188 0 5.1659221649 0.063635274768 0
          4.9571437836 0.03900411725 0 5.2204251289 0.0094138607383 0
          5.5660605431 0.12479567528 0 5.1980071068 -0.0075205969624 0
          5.2451295853 0.00033859771793 0 0 0 0
          5.248044014 -0.0040818429552 0 5.2420563698 0.0038751771208 0
          5.276951313 -0.0098527958617 0 5.2323904037 0.0073889214545 0
          5.211312294 0.0071036722511 0 5.2530946732 -0.0098206875846 0
          5.2249245644 0.0069158803672 0 5.2369809151 0.0053403167985 0
          5.2662067413 -0.0170505438 0 0 0 0
          5.2452354431 -0.0020463508554 0 4.2455406189 0.099078528583 0
          0 0 0 5.2480821609 -0.0073888343759 0
          5.2144231796 0.0084388963878 0 5.2428808212 0.0014853767352 0
          5.7912364006 0.016687804833 0 5.2135305405 0.029533952475 0
          5.2556853294 -0.01650326699 0 5.2395458221 0.0035450698342 0
          5.2223858833 0.0034297928214 0 5.2975120544 -0.024587089196 0
          4.6493663788 0.18112193048 0 0 0 0
          5.2301383018 0.0043614450842 0 5.2502217293 0.017413731664 0
          5.2493672371 -0.013438435271 0 5.2428994179 -0.00086184579413 0
          5.2446928024 -0.0053846137598 0 5.2742147446 -0.027773257345 0