<?xml version="1.0"?>
<VTKFile type="PolyData" version="0.1" byte_order="LittleEndian" compressor="vtkZLibDataCompressor">
  <PolyData>
    <Piece NumberOfPoints="1041" NumberOfVerts="0" NumberOfLines="0" NumberOfStrips="0" NumberOfPolys="1940">
      <PointData>
        <DataArray type="Float32" Name="PRESSURE" format="ascii" RangeMin="-6.9699244499" RangeMax="3.8973505497">
          0 0.2210303396 0 0.058112934232 0.14779549837 0
          0.022893002257 0.0026710354723 0.090926341712 -0.0099240746349 0.060666989535 0
          -0.091568015516 -0.072355680168 -0.024431852624 -0.13543258607 -0.054144930094 0
          -0.19699841738 -0.2227743417 -0.24598905444 -0.19169221818 -0.13835790753 -0.2360304296
          0 -0.30518007278 -0.3337085247 -0.29532185197 -0.28392326832 -0.3305324614
          -0.16257528961 -0.40682351589 0 -0.36252358556 -0.41896745563 -0.45115879178
          -0.41629204154 -0.38885930181 -0.33938494325 -0.39993736148 -0.45748761296 -0.19684305787
          -0.4843596518 0 -0.46962246299 -0.45744144917 -0.50331413746 -0.43692007661
          -0.51650089025 -0.47206649184 -0.44584769011 -0.37406152487 -0.19444021583 -0.50951641798
          -0.53245872259 -0.4979686439 -0.52489620447 -0.48347201943 0 -0.4524666965
          -0.51854944229 -0.47076204419 -0.4706543684 -0.55638414621 -0.28794065118 -0.59140557051
          -0.1486671567 -0.53716641665 -0.49381622672 -0.51820635796 -0.43168666959 -0.51769286394
          -0.63562053442 0 -0.59462344646 -0.47857242823 -0.63898569345 -0.51393294334
          -0.30551272631 -0.4632782042 -0.73351693153 -0.16684642434 -0.45107528567 -0.5145034194
          -0.5231077075 -0.49118512869 -0.51219129562 -0.76335674524 0 -0.72221374512
          -0.41560637951 -0.51612687111 -0.78259289265 -0.59088873863 -0.66133719683 -0.51379907131
          -0.87990558147 -0.15181235969 -0.27564701438 -0.47204104066 -0.47260397673 -0.54318851233
          -0.5236337781 -0.85971492529 -0.60614532232 -0.56550097466 -0.91542953253 0
          -0.56740623713 -0.96434152126 -0.73014014959 -0.47215932608 -0.64415222406 -1.1091367006
          -0.20314468443 -0.56252521276 -0.58983761072 -0.50749176741 -0.56021153927 -0.93026608229
          -0.71568894386 -1.0788820982 -0.63550549746 -0.3681885004 -1.1677308083 0
          -1.1477781534 -0.65868473053 -0.55315160751 -1.308560133 -1.0076106787 -0.21882782876
          -0.62850701809 -0.79487031698 -0.57142156363 -1.141055584 -0.70284813643 -0.52173745632
          -0.56211680174 -0.73131603003 -1.2783802748 0 -1.2415372133 -1.3390179873
          -0.42081612349 -0.61425048113 -0.77200436592 -0.99708080292 -0.69746315479 -0.62057054043
          -0.62942767143 -1.5138738155 -0.21313139796 -1.2360463142 -0.59122908115 -0.75683099031
          -0.58951485157 -1.510756135 -0.88307112455 -1.5070310831 0 -0.56709909439
          -0.96897345781 -0.40299147367 -1.4952847958 -1.4576723576 -1.3058280945 -1.7910696268
          -0.58820414543 -1.6192045212 -0.19376190007 -0.75570905209 -1.2370798588 -0.51180487871
          -1.480343461 -0.59395051003 -1.6377372742 -0.88421326876 -0.61057066917 -1.5921839476
          0 -1.6429716349 -0.55253440142 -0.97016268969 -1.1908489466 -1.5848270655
          -1.4311044216 -0.39779645205 -0.60383909941 -1.6471437216 -1.629586339 -0.17680567503
          -0.55722594261 -1.7177962065 -1.3751926422 -0.5439504385 -0.56083011627 -0.72747075558
          -1.5974915028 -1.7416709661 -0.89597767591 -0.57411962748 -1.0315099955 -1.6245161295
          0 -1.5544782877 -0.62167006731 -1.715618372 -0.56808799505 -1.6766781807
          -1.54436028 -0.30059796572 -1.1535881758 -1.313685894 -1.7190041542 -0.57753658295
          -1.6823146343 -1.7508574724 -0.10992584378 -0.68648076057 -0.58438056707 -0.90284848213
          -0.37794175744 -0.57619953156 -0.50610131025 -1.4571055174 -1.7408246994 -1.0855518579
          -1.633975029 -1.5498048067 0 -1.4514153004 -0.52166354656 -1.3861341476
          -0.68449556828 -1.6468087435 -1.6869069338 -0.18363799155 -1.315584898 -0.60018402338
          -1.6891975403 -1.5380276442 -1.4383568764 -1.690215826 -1.6535272598 -0.57254856825
          -1.4347567558 -1.4673290253 -0.87748503685 -0.40978974104 -0.070307664573 -0.66430866718
          -1.149949193 -1.6537035704 -0.58902275562 -0.4635013938 -1.4967880249 -1.363489747
          -1.5371402502 -1.5578821898 -1.5022599697 -1.4384613037 0 -0.51073646545
          -0.23716841638 -0.64592343569 -1.6067727804 -1.5262918472 -0.1240580678 -0.85863268375
          -1.6269038916 -1.5773327351 -1.6022979021 -1.5110714436 -0.56096321344 -1.5035666227
          -1.1460598707 -1.4921480417 -1.6068059206 -0.31222969294 -1.5336931944 0.011350507848
          -1.4199718237 -0.76135516167 -0.42381829023 -1.5861878395 -0.64536386728 -1.5429925919
          -1.4763123989 -1.4880218506 -1.5840604305 0 -1.4579432011 -1.4674122334
          -0.51959502697 -1.6915397644 0.052987944335 -0.7173371911 -0.045844536275 -1.4562709332
          -1.4828945398 -1.174566865 -1.4414105415 -0.19015565515 -1.5106215477 -0.95463579893
          -0.60477393866 -1.3950544596 -1.4116955996 -1.4717646837 -1.6227560043 -1.6807038784
          -0.35101476312 -1.4177434444 -1.4364361763 -0.84775429964 -0.47005477548 -1.7419035435
          -1.4108198881 -0.73419249058 -1.4266961813 -1.3736093044 -1.5954004526 0
          -1.412938714 0.091524511576 -0.032249461859 -1.4108134508 -0.58875650167 -0.068108260632
          -1.7575737238 -0.81339538097 -1.18316257 -1.3208557367 -1.0306216478 -1.4443553686
          -1.3498181105 -0.21525491774 -1.6337987185 -1.3546681404 -1.3170791864 -0.65633583069
          -1.4669812918 -1.4258850813 -1.3682638407 -1.7656953335 -1.669721365 -0.35771000385
          -1.2874637842 -1.286823988 -0.48765531182 -1.8054161072 -0.81402277946 -1.378918767
          -1.5405933857 -1.36231637 -1.038400054 -1.2853711843 -1.3646434546 -1.3719706535
          -0.59311556816 -1.7416980267 -1.7534043789 -1.6754359007 -0.90612256527 -1.2898275852
          -1.3067582846 -1.4002665281 -1.2903482914 -0.68032246828 -1.3560726643 -1.2720240355
          -1.8191537857 -1.1697432995 -1.3233392239 -1.5961722136 -1.2021856308 -1.1942920685
          -1.7631572485 -0.84845596552 -1.2850546837 -1.0420049429 -1.373203516 -1.4529807568
          -1.341262579 -1.2493520975 -1.5165803432 -1.7447137833 -1.6361906528 -1.2004623413
          -1.2499924898 -1.8070107698 -1.2870579958 -0.85859358311 -1.1421829462 -1.3873479366
          -1.5134994984 -1.2352807522 -1.2661151886 -1.7742767334 -1.225320816 -1.1411639452
          -1.2963079214 -1.4840263128 -1.1628118753 -1.6661278009 -1.2028064728 -1.1934492588
          -1.3611727953 -1.2104431391 -1.3227008581 -1.6066080332 -1.2263715267 -1.7107297182
          -1.335776329 -1.5314850807 -1.6858050823 -1.3395872116 -1.2158799171 -1.748924017
          -1.1819684505 -1.27450037 -1.3658065796 -1.185421586 -1.3102765083 -1.200119853
          -1.6329594851 -1.2149273157 -1.2281626463 -1.4855020046 -1.6336302757 -1.9228971004
          -1.4969055653 -1.3311605453 -1.2443529367 -1.2471735477 -1.6712449789 -1.1273118258
          -1.3250678778 -1.3359848261 -1.1809632778 -1.3404928446 -1.5906201601 -1.265399456
          -1.7082816362 -1.3470381498 -1.3709360361 -1.1331855059 -1.1941719055 -1.3137196302
          -1.0923858881 -1.2481087446 -1.3955396414 -1.561999321 -1.5016795397 -1.4326689243
          -1.3488271236 -1.3308210373 -1.664896369 -1.3633104563 -1.3978149891 -1.2070382833
          -1.068972826 -1.4433498383 -1.4225605726 -1.4250576496 -1.5806719065 -1.3720619678
          -1.2265108824 -1.4315903187 -1.6544555426 -1.0945905447 -1.1596143246 -1.4106805325
          -1.0461046696 -1.3732988834 -1.6113271713 -1.3380082846 -1.2946201563 -1.6042691469
          -1.4377336502 -1.4722838402 -1.4237200022 -1.0783541203 -1.3729614019 -1.3198121786
          -1.7442606688 -1.5925124884 -1.3447475433 -1.4850833416 -1.8107303381 -1.3672475815
          -1.5080481768 -1.5462998152 -1.1357774734 -1.0829550028 -1.2107139826 -1.6251422167
          -1.0366873741 -1.3487513065 -1.784116745 -1.3202284575 -1.268691659 -1.7994807959
          -1.4761857986 -1.5036144257 -1.5667141676 -1.6092641354 -1.3162833452 -1.9008724689
          -1.6510130167 -1.5442547798 -1.5515984297 -1.3097844124 -1.2109367847 -1.8824516535
          -1.6250846386 -1.2728210688 -1.17177248 -1.1398302317 -1.6810510159 -1.7642977238
          -1.1055063009 -1.3028508425 -1.5510234833 -1.8607854843 -1.7955073118 -1.5761065483
          -1.5912637711 -1.7691483498 -1.2526702881 -1.9347058535 -1.1874991655 -1.642280221
          -1.6125349998 -1.184961319 -1.7231302261 -1.7175656557 -1.7217022181 -1.1309859753
          -1.2757898569 -1.8448244333 -1.4646558762 -1.7464203835 -1.8086936474 -1.1615102291
          -1.6295318604 -1.2912322283 -1.7843421698 -1.6172533035 -1.7602301836 -1.8886823654
          -1.6017944813 -1.3693100214 -1.1861199141 -1.2333681583 -1.7222987413 -1.6767038107
          -1.6726462841 -1.6285969019 -1.6707346439 -1.2420797348 -1.6726862192 -1.9108964205
          -1.6922018528 -1.5709816217 -1.7982186079 -1.2389966249 -1.6572124958 -1.2136224508
          -1.6319283247 -1.6474182606 -1.7916895151 -1.2129940987 -1.6352748871 -1.4307912588
          -1.8675318956 -1.1645561457 -1.601041913 -1.7254416943 -1.6691493988 -1.6826293468
          -1.5796035528 -1.8612822294 -1.6282966137 -1.5600656271 -1.2960540056 -1.7240934372
          -1.7442097664 -1.2891522646 -1.5773530006 -1.7105157375 -1.2338196039 -1.6173331738
          -1.617046237 -1.6753118038 -1.8444550037 -1.4620575905 -1.5509454012 -1.7364413738
          -1.7511496544 -1.5230617523 -1.630466342 -1.6633303165 -1.5050939322 -1.7523623705
          -1.6363645792 -1.346233964 -1.5360248089 -1.3822768927 -1.7064415216 -1.258387804
          -1.6588535309 -1.6424626112 -1.6303068399 -1.6690150499 -1.6246083975 -1.5617917776
          -1.6345556974 -1.6523225307 -1.5152772665 -1.5790061951 -1.6534177065 -1.6942887306
          -1.4660792351 -1.5196938515 -1.6097714901 -1.6954134703 -1.4551793337 -1.5291349888
          -1.3560379744 -1.6732238531 -1.6292392015 -1.6459211111 -1.7640273571 -1.6739333868
          -1.6843662262 -1.7143304348 -1.6723549366 -1.572981596 -1.6748937368 -1.5787295103
          -1.6077805758 -1.5924654007 -1.7245719433 -1.5780334473 -1.5376827717 -1.5784882307
          -1.6699495316 -1.5803383589 -1.4529621601 -1.5552904606 -1.6705901623 -1.7212641239
          -1.6179021597 -1.7492976189 -1.7173712254 -1.7723641396 -1.7280647755 -1.6272593737
          -1.704785943 -1.6876345873 -1.5285028219 -1.6962329149 -1.7600831985 -1.5933051109
          -1.6944284439 -1.6245136261 -1.5261163712 -1.637253046 -1.6290112734 -1.7818473577
          -1.8375128508 -1.5413774252 -1.767493844 -1.7803212404 -1.5658704042 -1.826954484
          -1.9090688229 -1.8418420553 -1.5865892172 -1.9000015259 -1.8647122383 -1.9122502804
          -1.6463369131 -1.7415692806 -1.661106348 -1.8643610477 -1.5496587753 -1.9876406193
          -1.6091635227 -1.969928503 -1.68577528 -1.6387978792 -2.1188595295 -1.8850581646
          -1.5659052134 -1.988355875 -1.6442307234 -2.0407578945 -1.8686002493 -2.0192785263
          -2.1710157394 -2.1962471008 -1.6310343742 -2.2397487164 -1.7029145956 -1.6499378681
          -1.8455022573 -2.2963447571 -1.6946099997 -1.6265332699 -2.0241913795 -2.2413041592
          -2.4254262447 -1.8100492954 -1.6787719727 -2.0119466782 -2.4946370125 -2.1681888103
          -1.6624745131 -1.7821956873 -1.7652027607 -1.705729723 -2.0471215248 -2.4714815617
          -2.1897668839 -2.6247732639 -2.5847978592 -1.7341527939 -1.7853752375 -2.0179512501
          -2.7807173729 -2.6267192364 -2.4571750164 -1.7662928104 -2.1898732185 -1.9531385899
          -2.8465492725 -2.6889271736 -2.1825902462 -1.7463753223 -1.7915177345 -2.3715410233
          -1.8133699894 -2.0033957958 -2.2489049435 -2.6902532578 -2.3488571644 -2.8542017937
          -1.9304264784 -1.866902113 -3.0908119678 -2.2446517944 -3.1541962624 -2.3946602345
          -1.9891096354 -2.8828389645 -2.855080843 -2.4606881142 -2.6875488758 -3.1342813969
          -1.8963571787 -3.284532547 -1.9020360708 -2.5335421562 -2.5792548656 -2.3052890301
          -2.7858703136 -2.5173795223 -2.9576263428 -2.0841255188 -3.2909526825 -3.3314993382
          -2.6171264648 -3.1653828621 -2.0286490917 -2.8814342022 -2.320117712 -1.8761419058
          -2.8217527866 -2.6961605549 -3.1194975376 -2.6782646179 -1.9478957653 -2.8307366371
          -3.2659034729 -2.563390255 -2.6837472916 -2.7917826176 -2.693939209 -3.0098245144
          -3.1785471439 -2.742372036 -2.8948636055 -3.0036916733 -2.9247796535 -2.0170896053
          -2.3359050751 -2.5444521904 -2.175167799 -2.6690142155 -2.5981121063 -2.7326991558
          -3.1489460468 -3.0950415134 -2.4339439869 -2.4450287819 -2.6656720638 -2.6905925274
          -2.3947622776 -2.496465683 -3.2723443508 -2.3155169487 -2.511755228 -2.4516232014
          -2.2464883327 -2.6399345398 -2.9709496498 -2.9295346737 -2.4406793118 -2.1657660007
          -3.2000567913 -2.0960741043 -2.2332770824 -3.1511030197 -2.0638525486 -3.382070303
          -1.9338133335 -1.9116214514 -1.9176032543 -2.1369452477 -1.9808187485 -2.8808972836
          -2.5055105686 -2.7132396698 -3.2710368633 -1.9574381113 -2.3889360428 -3.1255781651
          -1.9687650204 -1.6667979956 -1.5668435097 -2.5021426678 -3.1927382946 -1.7569969893
          -1.4337149858 -1.3668409586 -1.6871169806 -2.8587059975 -2.7160999775 -1.5113002062
          -3.06954813 -1.5377299786 -1.4315187931 -2.9559333324 -1.6299126148 -1.7946445942
          -2.4048402309 -1.5726513863 -1.273286581 -1.9103668928 -1.2457478046 -2.4889817238
          -1.2066172361 -1.6164088249 -2.8843352795 -2.7072355747 -1.2952545881 -2.8318853378
          -2.7983460426 -1.8935707808 -1.3709900379 -1.5343374014 -1.1169289351 -2.7512078285
          -1.1283054352 -1.1979006529 -1.4197865725 -1.6251599789 -1.7505552769 -1.0998622179
          -0.93897652626 -1.380734086 -1.5460828543 -1.3517371416 -2.7017388344 -1.8182134628
          -1.4008812904 -2.586278677 -2.3840553761 -1.4742877483 -1.3789908886 -0.74826419353
          -1.4190526009 -2.055742979 -1.5119285583 -1.8141435385 -0.91955792904 -1.5077112913
          -1.2242521048 -1.3114892244 -1.4451727867 -0.6456720233 -2.4007143974 -1.5644652843
          -1.3847965002 -1.4025485516 -2.1224908829 -1.6912794113 -1.3312345743 -1.8330676556
          -1.3221455812 -0.35552117229 -1.5192581415 -0.71397989988 -1.5725039244 -1.2580058575
          -1.2708566189 -1.0911710262 -1.4984645844 -1.4289364815 -1.5456352234 -0.26415494084
          -1.9707254171 -1.2631573677 -1.4729865789 -1.3066773415 -1.7094407082 -1.3515404463
          -1.4049959183 -1.5626039505 0.17084223032 -1.4708000422 -1.4302481413 -0.29975125194
          -1.2163108587 -1.3691408634 -1.2587065697 -1.6028609276 -1.3689609766 -1.543857336
          -1.416660428 0.36397567391 -1.2652121782 -1.1514787674 -1.5191178322 -0.86237090826
          -1.3883353472 -1.0937780142 -1.5183140039 -1.5837532282 -1.3167309761 0.83645111322
          -1.4727113247 -1.2954579592 -1.0862853527 -0.92065352201 0.63363462687 -1.9582912922
          -1.3560502529 1.0332587957 -1.1396437883 -1.767013669 -1.2550108433 -0.95980346203
          -1.4807759523 -1.2310028076 -1.321397543 -0.91829407215 -1.7100712061 -1.5136393309
          -1.3724296093 -1.4316287041 -1.3283013105 1.6669325829 -1.4716997147 -1.3353265524
          1.8524714708 -1.3519115448 1.089001894 -2.1291153431 -0.76520770788 -4.3847136497
          -0.65869128704 -1.371273756 -1.3263664246 -2.6279916763 -1.0255372524 -0.66758143902
          -0.65476042032 -1.4747462273 -1.5665704012 -1.2062318325 -1.8000872135 -1.7004185915
          -1.2292792797 2.1510953903 -1.4083874226 2.6352581978 3.8973505497 -0.29562184215
          -1.4979271889 -0.34700718522 -6.9699244499 -1.212928772 -6.4965143204 -0.22872970998
          -1.0233963728 -1.8517935276 -1.7359017134 -0.3673979044 0.34317058325 -1.1404732466
          -1.2215087414 -1.9582806826 -1.7696390152 -0.65304243565 -1.5652472973 -0.88483709097
          0.18772439659 -2.6354136467 -1.7684276104 0.42514768243 -1.1699868441 -4.5969734192
          0.67334055901 0.3521695435 -2.0286021233 -1.0133948326 0.85572254658 1.1033203602
          1.1345863342 -6.5102901459 -6.9386668205 1.8269871473 -0.31301051378 1.6602070332
          3.8502788544 2.64529562 2.1527514458
        </DataArray>
        <DataArray type="Float32" Name="VELOCITY" NumberOfComponents="3" ComponentName0="X-VELOCITY" ComponentName1="Y-VELOCITY" ComponentName2="Z-VELOCITY" format="ascii" RangeMin="0" RangeMax="8.1143294969">
          0 0 0 0 0 0
          2.6444809437 0.0010509738931 0 3.499008894 0.069498814642 0
          2.5418159962 0.10466194898 0 3.8401224613 0.062932021916 0
          0 0 0 3.6520490646 -0.12994413078 0
          2.7989692688 0.018665209413 0 3.4372251034 -0.064507439733 0
          0 0 0 3.8756008148 -0.15897773206 0
          3.7800450325 -0.12828589976 0 4.1470675468 -0.15274517238 0
          2.7295825481 -0.0068039465696 0 3.3729705811 -0.08236323297 0
          0 0 0 4.5078086853 -0.16952247918 0
          3.1710700989 -0.086802467704 0 4.4730448723 -0.17543630302 0
          4.0747699738 -0.16003362834 0 2.6302714348 -0.030750904232 0
          4.855723381 -0.18557837605 0 0 0 0
          5.2832555771 -0.20859445632 0 3.6302659512 -0.13697251678 0
          4.8053827286 -0.13584940135 0 3.124535799 -0.092685222626 0
          5.3233532906 -0.16847391427 0 2.6027159691 -0.035192806274 0
          5.614484787 -0.21021737158 0 4.6862783432 -0.10845745355 0
          5.9315433502 -0.22581282258 0 0 0 0
          4.2228269577 -0.096981659532 0 5.3083310127 -0.095397926867 0
          5.568406105 -0.12084385008 0 3.5826084614 -0.10479102284 0
          5.8520331383 -0.18123351038 0 3.0637891293 -0.095146514475 0
          2.5386528969 -0.02706784755 0 6.1386976242 -0.24178780615 0
          0 0 0 6.3769807816 -0.25711303949 0
          5.1034169197 -0.045519214123 0 4.3843979836 -0.069430537522 0
          5.5868291855 -0.019806591794 0 3.654914856 -0.11308428645 0
          5.9654932022 -0.019184753299 0 6.2205839157 -0.083017334342 0
          3.0353224277 -0.094725899398 0 6.4302840233 -0.16248399019 0
          6.5760092735 -0.23396100104 0 2.4583408833 -0.011027445085 0
          6.2556052208 0.072244361043 0 3.578132391 -0.11757063121 0
          6.5316977501 0.043849240988 0 0 0 0
          6.7554020882 -0.23236349225 0 4.5192298889 -0.069000132382 0
          6.0507078171 0.071542471647 0 6.7461013794 -0.028463287279 0
          5.5014128685 0.012387045659 0 2.922457695 -0.10237691551 0
          6.9050321579 -0.13243837655 0 2.220271349 -0.018404310569 0
          6.9843912125 -0.17245846987 0 6.7743000984 0.14931929111 0
          5.401204586 -0.019074765965 0 6.5996937752 0.15976847708 0
          7.0956516266 -0.0074781198055 0 6.9777288437 0.099616400898 0
          0 0 0 6.9640994072 -0.11162852496 0
          3.6145858765 -0.11668099463 0 6.4423103333 0.11995197088 0
          2.8671717644 -0.09156601131 0 4.6458191872 -0.096393361688 0
          7.2100448608 -0.068910576403 0 6.1606984138 0.060944642872 0
          2.196775198 -0.047067306936 0 7.1511130333 -0.0246652551 0
          7.2147216797 0.0689734146 0 6.9356350899 0.20198407769 0
          7.0725803375 0.16107618809 0 5.7764081955 -0.028927451 0
          6.8588252068 0.17782592773 0 0 0 0
          7.051513195 0.030396578833 0 3.4845860004 -0.13318803906 0
          7.3426032066 0.011908818036 0 6.7288126945 0.098919533193 0
          2.8319149017 -0.11017709225 0 5.3932247162 -0.10805366933 0
          4.424759388 -0.14371696115 0 6.4604721069 0.0025185167324 0
          2.107609272 -0.039340831339 0 7.1425642967 0.10543441027 0
          7.2751994133 0.073308706284 0 7.3234610558 0.0083775855601 0
          7.2375555038 0.050320822746 0 6.976770401 0.16385048628 0
          7.0713386536 0.12760616839 0 3.5744981766 -0.16041558981 0
          6.1522955894 -0.098333619535 0 6.9369721413 0.11061629653 0
          0 0 0 6.9760742188 0.17475478351 0
          6.8649692535 0.0098225791007 0 2.7736785412 -0.11215070635 0
          5.5616645813 -0.17295946181 0 7.2641305923 0.019220480695 0
          6.7046437263 -0.10548004508 0 2.028244257 -0.059762675315 0
          6.9459738731 0.22240142524 0 6.9412279129 0.055345397443 0
          6.8909721375 0.075165078044 0 7.106420517 -0.043296854943 0
          7.2121047974 -0.085685588419 0 4.7177252769 -0.18331050873 0
          6.3979120255 -0.19272822142 0 3.5031130314 -0.1660567224 0
          6.9171152115 -0.0046188062988 0 6.9599494934 0.17411334813 0
          0 0 0 6.7378516197 0.27563086152 0
          2.7639107704 -0.096778318286 0 6.9171652794 -0.12484226376 0
          7.0034737587 -0.057539563626 0 2.1238806248 -0.056248795241 0
          5.8807477951 -0.24455599487 0 6.6340417862 0.29724800587 0
          6.8645834923 0.010872870684 0 6.8250632286 -0.22364522517 0
          6.9948515892 -0.084533087909 0 4.4460363388 -0.19882936776 0
          6.846560955 0.012562626041 0 6.7739896774 0.077652618289 0
          7.0287737846 -0.17623995245 0 6.931930542 -0.080576889217 0
          0 0 0 6.4042348862 0.3283906281 0
          5.3225774765 -0.22132243216 0 3.0559403896 -0.12910817564 0
          6.4389815331 0.23000073433 0 6.8631410599 -0.14733825624 0
          6.9890060425 -0.21389994025 0 6.7639379501 -0.31605488062 0
          6.8525261879 0.035524021834 0 6.5981388092 -0.032844010741 0
          6.9428706169 -0.04214559868 0 1.9668949842 -0.058229461312 0
          6.1888537407 0.32251030207 0 6.1700325012 -0.25900965929 0
          6.229142189 0.12130047381 0 6.9034423828 0.039336204529 0
          6.7868680954 -0.17705012858 0 4.7201018333 -0.20214135945 0
          7.0613307953 -0.081672810018 0 0 0 0
          5.9847531319 0.30798590183 0 6.9027695656 -0.15515497327 0
          7.1054844856 -0.25550654531 0 5.9419722557 0.25256279111 0
          5.8615074158 -0.20352983475 0 2.7716391087 -0.045989077538 0
          6.6956758499 -0.27681204677 0 1.8094198704 -0.039195477962 0
          6.3731398582 -0.10798642039 0 3.5645000935 -0.1417183876 0
          5.6850123405 0.28811135888 0 6.9419512749 0.11377657205 0
          7.0299210548 -0.28105843067 0 5.7142319679 0.17293989658 0
          6.4166259766 -0.21479706466 0 5.875770092 0.051384765655 0
          4.61596632 -0.1207337901 0 7.0475234985 0.16089826822 0
          6.8450989723 -0.008831446059 0 0 0 0
          5.4229879379 0.27117270231 0 5.5020389557 -0.12338080257 0
          6.46702528 -0.12519463897 0 7.2658896446 -0.0039921859279 0
          7.3526334763 -0.17165192962 0 2.5253136158 0.060476224869 0
          6.9327735901 -0.18469421566 0 5.2709918022 0.22343455255 0
          5.7397656441 -0.0039455643855 0 2.9313108921 -0.10904014856 0
          6.1678743362 -0.12567439675 0 5.0642533302 0.26707732677 0
          6.5595016479 -0.041874296963 0 4.1893553734 -0.079702667892 0
          7.2922539711 -0.14057162404 0 5.1409058571 0.13587111235 0
          5.8261432648 -0.033481448889 0 6.8486170769 0.18823926151 0
          6.6857771873 -0.095955818892 0 5.1740846634 -0.06778524071 0
          6.9835686684 0.28958117962 0 5.1913022995 0.066798210144 0
          7.166882515 0.26214423776 0 0 0 0
          4.5689764023 0.25111785531 0 2.0431358814 0.08007133007 0
          6.5943946838 0.084940351546 0 5.9005861282 -0.034583907574 0
          5.9839448929 -0.009681600146 0 2.4653398991 -0.09199680388 0
          7.1377625465 -0.059814278036 0 4.3233728409 0.22127975523 0
          7.4599556923 0.096631214023 0 7.551782608 -0.06008309871 0
          3.6079821587 -0.032556768507 0 5.1032972336 0.050126776099 0
          6.4643592834 0.005836118944 0 4.7251338959 -0.023586994037 0
          4.0741744041 0.19506889582 0 6.5591773987 0.1820820123 0
          6.0546965599 0.05220079422 0 6.727894783 0.31069582701 0
          3.9980742931 0.19370168447 0 5.2319736481 0.047088366002 0
          4.2226247787 0.1245797947 0 7.5062499046 -0.025433033705 0
          5.6183156967 0.027336543426 0 6.9020805359 0.35318359733 0
          6.9640007019 0.038597553968 0 2.1582424641 -0.0015647849068 0
          3.8181557655 0.18698872626 0 0 0 0
          4.2812509537 0.10398260504 0 7.5850844383 0.043858464807 0
          6.0997071266 0.12841291726 0 3.0488803387 -0.02308460325 0
          6.2334532738 0.081831134856 0 3.7837178707 0.17064169049 0
          7.1065106392 0.29377809167 0 5.2650594711 0.068656630814 0
          4.2048797607 0.0051436587237 0 7.3572230339 0.046860843897 0
          7.6537652016 0.0011173575185 0 5.260114193 0.058113317937 0
          6.747879982 0.1165426448 0 4.1959695816 0.096227869391 0
          7.3375926018 0.15580357611 0 2.0092053413 -0.016481438652 0
          6.2407755852 0.23140928149 0 3.5489282608 0.14938391745 0
          3.628711462 0.17681702971 0 5.3446569443 0.10277799517 0
          6.4101290703 0.31820353866 0 6.0014715195 0.12199001759 0
          4.2792630196 0.09653685987 0 3.5014574528 0.12689168751 0
          7.5983757973 0.020634619519 0 6.6834769249 0.29897764325 0
          2.2295744419 -0.025969643146 0 7.1800284386 0.12942127883 0
          7.5337710381 0.017127269879 0 0 0 0
          3.7813720703 0.0097593748942 0 3.465928793 0.1210642904 0
          3.3840200901 0.091300673783 0 4.3811454773 0.098105035722 0
          6.5264129639 0.16929607093 0 6.9137673378 0.18896152079 0
          3.3814079762 0.094024956226 0 5.455177784 0.16412392259 0
          4.8635940552 0.077453069389 0 3.5929734707 0.013765292242 0
          5.7787370682 0.12774185836 0 7.4505448341 0.084404058754 0
          3.5050714016 0.12432099134 0 7.612388134 -0.033112663776 0
          5.9168272018 0.25201526284 0 1.9403866529 -0.027203047648 0
          7.1681928635 0.035871561617 0 3.2292401791 0.089617945254 0
          7.0118231773 0.19304248691 0 3.4219863415 -0.026219155639 0
          6.1300740242 0.27511805296 0 4.3454122543 0.12749746442 0
          3.1994175911 0.1056875214 0 6.4717898369 0.20037521422 0
          3.4981980324 0.12951423228 0 6.272354126 0.18746432662 0
          7.5598702431 -0.009012193419 0 7.2763519287 0.14472557604 0
          7.373383522 -0.075052984059 0 2.8707466125 0.032039813697 0
          0 0 0 2.3142838478 -0.019729357213 0
          3.1671903133 0.11679770797 0 6.7051811218 0.06614203006 0
          2.5952005386 -0.089355006814 0 3.5201125145 0.12756817043 0
          2.7419190407 0.011664037593 0 5.876914978 0.15758383274 0
          4.8182191849 0.093977116048 0 4.991382122 0.20755392313 0
          7.435790062 0.052538786083 0 2.7106795311 0.036665413529 0
          7.4583520889 -0.11382755637 0 4.244199276 0.16935575008 0
          3.1196494102 0.11198161542 0 5.4954333305 0.21601550281 0
          6.8911423683 0.21879053116 0 1.9144003391 -0.019473504275 0
          5.8532009125 0.20156624913 0 6.9706420898 -0.080341525376 0
          2.5930140018 0.03301941976 0 7.1151528358 0.18315842748 0
          3.5568904877 0.046767469496 0 3.5231044292 0.15050572157 0
          2.4980983734 0.04481337592 0 6.1617383957 0.091937698424 0
          6.5726695061 0.20849218965 0 3.0287165642 0.1163046658 0
          7.4170832634 -0.080367937684 0 7.2797060013 0.10945063829 0
          7.1726326942 -0.16987678409 0 0 0 0
          0 0 0 0 0 0
          0 0 0 2.3626697063 -0.019426424056 0
          2.403216362 0.037011709064 0 0 0 0
          6.46443367 -0.044991917908 0 3.0052182674 0.10892342031 0
          3.8581550121 0.17512439191 0 5.701169014 0.1377453357 0
          3.4367427826 0.14722105861 0 4.436398983 0.19878189266 0
          4.6651892662 0.092347830534 0 0 0 0
          5.1036529541 0.15813067555 0 7.3151788712 -0.0055327098817 0
          7.1125421524 0.15208527446 0 2.306135416 0.035988543183 0
          7.2692165375 -0.19309857488 0 1.8508380651 -0.020882157609 0
          3.5479476452 0.048003353179 0 5.5041232109 0.10970129818 0
          6.7563767433 -0.16909700632 0 0 0 0
          6.3436479568 0.15020036697 0 6.9165706635 0.15255558491 0
          0 0 0 5.8842196465 -0.01117847953 0
          2.1142506599 0.033935148269 0 0 0 0
          6.9752640724 -0.23088124394 0 7.2533340454 -0.13953077793 0
          2.8180484772 0.11098305136 0 7.2030320168 0.040415164083 0
          2.4114470482 -0.01568251662 0 3.5148797035 0.14689296484 0
          0 0 0 6.2239494324 -0.12863259017 0
          4.7703447342 0.085036665201 0 3.8892242908 0.17137084901 0
          2.101752758 0.035429190844 0 4.5342350006 0.082724764943 0
          2.9875018597 0.13270233572 0 1.8115457296 -0.027282277122 0
          7.1877903938 -0.07331905514 0 0 0 0
          7.0755910873 -0.24082250893 0 7.0889787674 0.056452803314 0
          5.1310782433 0.029888715595 0 6.2765374184 0.073743745685 0
          3.6799507141 0.049579940736 0 6.5390501022 -0.22617831826 0
          5.5711631775 0.075981341302 0 6.7975306511 0.044185515493 0
          5.5775561333 -0.084894947708 0 0 0 0
          7.115041256 -0.15476183593 0 1.699205637 0.032877020538 0
          0 0 0 6.8042945862 -0.25825801492 0
          2.4798567295 -0.0049520167522 0 7.1329183578 -0.016949430108 0
          2.9839336872 0.080203875899 0 3.4126315117 0.12335798144 0
          5.962688446 -0.16849915683 0 6.9810128212 -0.0070505221374 0
          4.7119050026 0.066282168031 0 4.1793804169 0.029208730906 0
          1.947726965 0.043922059238 0 0 0 0
          6.1264190674 -0.017720883712 0 1.8028081656 -0.017051313072 0
          6.2906522751 -0.22363439202 0 7.0939102173 -0.071249641478 0
          6.9445405006 -0.22945426404 0 4.7011823654 -0.031540062279 0
          7.0896348953 -0.01850650087 0 6.5724477768 -0.08375377208 0