<?xml version="1.0"?>
<VTKFile type="PolyData" version="0.1" byte_order="LittleEndian" compressor="vtkZLibDataCompressor">
  <PolyData>
    <Piece NumberOfPoints="1041" NumberOfVerts="0" NumberOfLines="0" NumberOfStrips="0" NumberOfPolys="1940">
      <PointData>
        <DataArray type="Float32" Name="PRESSURE" format="ascii" RangeMin="-7.0100607872" RangeMax="5.6874337196">
          0 0.16061599553 0 0.09948027879 0.1846396029 0
          0.1272021234 0.089910529554 0.17277437449 0.13364239037 0.12200225145 0
          0.11496081203 0.073658414185 0.1157091856 0.12017624825 0.10081007332 0
          0.064434409142 0.13059008121 0.13594539464 0.039089731872 0.092792868614 0.0014584766468
          0 0.056112356484 0.14135348797 -0.026165222749 0.13866324723 -0.083721756935
          0.097553856671 0.051183708012 0 -0.11199632287 -0.045349415392 0.060282833874
          0.09440702945 -0.1305770725 0.12317632884 -0.15036192536 -0.20072717965 0.066016674042
          -0.22553613782 0 -0.14797344804 -0.20813857019 -0.088480040431 -0.24195918441
          -0.0070129847154 0.065888047218 -0.24022197723 0.066128402948 0.046390343457 -0.27915787697
          -0.12591618299 -0.33080467582 -0.032349091023 -0.27165344357 0 -0.32253366709
          -0.25170481205 0.0044870246202 -0.34151789546 -0.32655003667 0.013053466566 -0.33580043912
          -0.0016004279023 -0.14079502225 -0.44211131334 -0.27808922529 -0.037588145584 -0.070523776114
          -0.34403476119 0 -0.39680668712 -0.39885690808 -0.36733064055 -0.43242022395
          0.0044675855897 -0.45958304405 -0.38600999117 -0.0050142682157 -0.11325098574 -0.30706039071
          -0.17103657126 -0.49141064286 -0.41544038057 -0.37496098876 0 -0.42271509767
          -0.043414715677 -0.48468595743 -0.39856758714 -0.47917795181 -0.44911259413 -0.49783754349
          -0.39681577682 0.024718647823 -0.0079872570932 -0.081848487258 -0.13497048616 -0.3637419045
          -0.2606357038 -0.4282875061 -0.52314144373 -0.4440843761 -0.38194698095 0
          -0.48214614391 -0.39677360654 -0.43160578609 -0.028276575729 -0.45787650347 -0.40354454517
          -0.011780290864 -0.36300382018 -0.42074909806 -0.2750569582 -0.15464322269 -0.379902035
          -0.44443541765 -0.37707960606 -0.42219290137 0.023903207853 -0.39660784602 0
          -0.36569756269 -0.38920396566 -0.090267501771 -0.37612229586 -0.34040653706 0.021773243323
          -0.41093617678 -0.35437035561 -0.37711900473 -0.29446828365 -0.36859533191 -0.049885883927
          -0.34263730049 -0.34729081392 -0.33079960942 0 -0.29036405683 -0.31493356824
          0.065105833113 -0.24719949067 -0.33782124519 -0.26707285643 -0.39205002785 -0.073179408908
          -0.47099632025 -0.35018143058 0.085133321583 -0.19005914032 0.010048570111 -0.35668578744
          -0.38838389516 -0.21923980117 -0.28003898263 -0.32975441217 0 -0.50754475594
          -0.24452702701 0.11333630234 -0.15081627667 -0.24792350829 -0.18356730044 -0.40504303575
          -0.29109719396 -0.2395645678 0.097451776266 -0.41001236439 -0.19193388522 0.072062559426
          -0.11535546184 -0.081003516912 -0.171740219 -0.31859529018 -0.56409424543 -0.29431515932
          0 -0.11311779916 -0.51648151875 -0.23868790269 -0.20225930214 -0.25209480524
          -0.14521601796 0.12093779445 -0.24658045173 -0.23369109631 -0.083481371403 0.094538412988
          -0.57996374369 -0.18947739899 -0.16239953041 0.020182926208 -0.41413554549 -0.48202669621
          -0.088172107935 -0.13495644927 -0.33587878942 -0.15102577209 -0.25637981296 -0.26759114861
          0 -0.21744699776 -0.58822566271 -0.095831789076 -0.53838074207 -0.25231903791
          -0.1272431016 0.1141365096 -0.21050168574 -0.1610506922 -0.23060710728 -0.29845011234
          -0.093180753291 -0.17706982791 0.065051034093 -0.50969612598 -0.59132301807 -0.39718440175
          0.06467153877 -0.44042268395 -0.061506588012 -0.13534025848 -0.15854036808 -0.26964348555
          -0.12960731983 -0.21339082718 0 -0.18575105071 -0.20960211754 -0.15761744976
          -0.5722233057 -0.24035310745 -0.14279444516 0.093299284577 -0.19880069792 -0.54011183977
          -0.22264808416 -0.15046861768 -0.16212549806 -0.20742355287 -0.18506585062 -0.35164687037
          -0.13913609087 -0.1967664212 -0.42914313078 -0.023075034842 0.067614026368 -0.57084453106
          -0.2955878973 -0.23137913644 -0.45102408528 -0.12610238791 -0.16313193738 -0.18779785931
          -0.23591323197 -0.20653352141 -0.13962891698 -0.19946062565 0 -0.22902698815
          0.047003433108 -0.5216357708 -0.2684417367 -0.12691731751 0.085477516055 -0.52006489038
          -0.2991668582 -0.28072994947 -0.30499362946 -0.20519402623 -0.35578918457 -0.16499225795
          -0.33024719357 -0.24560685456 -0.10487183183 -0.058142073452 -0.30062675476 0.07842078805
          -0.19965182245 -0.55323624611 -0.16236586869 -0.11151064932 -0.45398131013 -0.37296757102
          -0.20882213116 -0.29877460003 -0.14475363493 0 -0.24201770127 -0.26457223296
          -0.26785171032 -0.072986155748 0.13463570178 -0.49650156498 0.095609270036 -0.39200443029
          -0.34733247757 -0.40217635036 -0.29082834721 -0.00080249516759 -0.22273942828 -0.48261386156
          -0.35777133703 -0.22945968807 -0.4676322341 -0.27306178212 -0.13406975567 -0.1106679216
          -0.10569997877 -0.47739627957 -0.29940325022 -0.50810235739 -0.2120744884 -0.062180120498
          -0.4734223783 -0.43782448769 -0.29299762845 -0.44884735346 -0.19873066247 0
          -0.25504204631 0.1097927317 0.1011711508 -0.27235630155 -0.31612700224 0.063921667635
          -0.081893347204 -0.4626762867 -0.39668720961 -0.4541760385 -0.45224967599 -0.30629959702
          -0.36829075217 -0.028415730223 -0.17460459471 -0.40233597159 -0.54435133934 -0.3847053349
          -0.32424986362 -0.27314031124 -0.30008623004 -0.085337854922 -0.18020881712 -0.13319315016
          -0.50075209141 -0.56030029058 -0.23808641732 -0.070526525378 -0.45263406634 -0.25159832835
          -0.31721016765 -0.4267809093 -0.46122160554 -0.4746350348 -0.25698295236 -0.30322939157
          -0.33242806792 -0.14210747182 -0.14040526748 -0.2576624155 -0.45911285281 -0.32716017962
          -0.411567837 -0.25967657566 -0.45518904924 -0.39325720072 -0.51813739538 -0.5259745717
          -0.10403070599 -0.45143535733 -0.2738558352 -0.28983667493 -0.35346060991 -0.54148417711
          -0.13661722839 -0.45018786192 -0.54542344809 -0.4503249526 -0.24593921006 -0.42781564593
          -0.23091064394 -0.46945807338 -0.29720464349 -0.22976763546 -0.23904888332 -0.54607665539
          -0.2685264349 -0.15984101593 -0.43019604683 -0.4177081883 -0.32433387637 -0.24983856082
          -0.358597368 -0.52210366726 -0.59117621183 -0.16226127744 -0.44027662277 -0.4068184495
          -0.22325329483 -0.3877941072 -0.46103218198 -0.2116882354 -0.25366681814 -0.43951928616
          -0.24624106288 -0.59553951025 -0.21584406495 -0.24297451973 -0.45507597923 -0.20133122802
          -0.48660895228 -0.34221771359 -0.35710838437 -0.41820627451 -0.37204357982 -0.20823706686
          -0.2556142509 -0.18327853084 -0.24759595096 -0.51305562258 -0.2211740762 -0.59446644783
          -0.23353455961 -0.37148165703 -0.28284060955 -0.3578388989 -0.21976706386 -0.40432444215
          -0.33150187135 -0.24077761173 -0.34061455727 -0.20999962091 -0.21680657566 -0.57140398026
          -0.19203557074 -0.22986602783 -0.40579023957 -0.40174371004 -0.23050697148 -0.35577699542
          -0.34669286013 -0.18643036485 -0.26412716508 -0.45722180605 -0.49652653933 -0.24323023856
          -0.52253478765 -0.36316663027 -0.22541689873 -0.18626943231 -0.19152994454 -0.27652096748
          -0.25259813666 -0.34430545568 -0.2668107152 -0.27584546804 -0.19885209203 -0.36323043704
          -0.48408943415 -0.17662407458 -0.27461144328 -0.23501101136 -0.19358886778 -0.31445595622
          -0.38658618927 -0.32470154762 -0.24068927765 -0.42663702369 -0.33925902843 -0.30141696334
          -0.38757517934 -0.17267428339 -0.24990938604 -0.31513777375 -0.34044203162 -0.19972556829
          -0.3468349278 -0.27162083983 -0.32941362262 -0.29667499661 -0.1480268538 -0.2742818594
          -0.22018601 -0.30600240827 -0.28155484796 -0.40160274506 -0.25321388245 -0.25611224771
          -0.36187550426 -0.31875032187 -0.32305374742 -0.30430459976 -0.31045651436 -0.31593966484
          -0.25416842103 -0.19326934218 -0.31189531088 -0.21346770227 -0.28847318888 -0.2819904685
          -0.43511459231 -0.44043299556 -0.30721479654 -0.38462346792 -0.28245288134 -0.32059875131
          -0.37709984183 -0.50743323565 -0.45898753405 -0.24303676188 -0.27366390824 -0.40125674009
          -0.25738230348 -0.18361099064 -0.27786096931 -0.26289084554 -0.35840171576 -0.42103213072
          -0.21923092008 -0.29717501998 -0.54966908693 -0.4235445857 -0.41491404176 -0.5818194747
          -0.19417336583 -0.34056961536 -0.26104736328 -0.47937384248 -0.19751089811 -0.58158576488
          -0.64822328091 -0.26322266459 -0.45697456598 -0.60995197296 -0.60821694136 -0.23314231634
          -0.2928173244 -0.28787121177 -0.18410556018 -0.63764548302 -0.44487980008 -0.2506031096
          -0.7063267231 -0.28919556737 -0.64908766747 -0.74155044556 -0.24267815053 -0.41376537085
          -0.78517341614 -0.22767989337 -0.25835061073 -0.27854710817 -0.70708119869 -0.82711064816
          -0.82000786066 -0.65947121382 -0.87494790554 -0.27711829543 -0.92677158117 -0.36487534642
          -0.65808445215 -0.2758230865 -0.56268841028 -0.26567158103 -0.86850357056 -0.26099792123
          -0.92921769619 -1.007848978 -0.35551479459 -0.27870321274 -1.0373972654 -0.28847286105
          -0.53795295954 -0.26390516758 -1.1122171879 -0.98065382242 -0.70905721188 -0.91812700033
          -1.1885325909 -0.48810052872 -0.34826496243 -1.2328904867 -0.29282653332 -0.73859685659
          -1.0161209106 -0.30183696747 -1.2575585842 -0.86204171181 -0.28054496646 -1.1028548479
          -1.2122159004 -1.0932922363 -1.0866849422 -0.37328514457 -1.3096876144 -0.52666550875
          -0.73522299528 -1.4214568138 -1.0105518103 -1.0337995291 -1.4844759703 -0.6685461998
          -0.48549258709 -0.34453183413 -1.4645164013 -0.37917470932 -1.104080081 -0.29798078537
          -1.0300824642 -1.3384754658 -1.1691228151 -1.0930031538 -1.2867997885 -1.423864603
          -1.1373950243 -1.2182589769 -1.5519453287 -0.52073442936 -0.97109878063 -0.67666441202
          -0.46142616868 -1.6261386871 -1.2417131662 -1.1659247875 -0.44659826159 -1.5980256796
          -0.37944507599 -0.91618520021 -1.5050494671 -0.67242628336 -1.1510173082 -1.2443482876
          -1.1801036596 -1.2564857006 -1.3973386288 -1.292122364 -1.3333418369 -1.5227527618
          -1.4033021927 -1.6113376617 -1.2080712318 -0.63887178898 -0.54749047756 -1.2336863279
          -0.90604710579 -1.5748636723 -0.47265538573 -1.5062459707 -1.5010771751 -1.2288398743
          -1.1656709909 -1.1686800718 -1.3237792253 -1.2656599283 -1.0960462093 -0.86634165049
          -1.379914999 -1.3720279932 -1.5266675949 -1.4314581156 -1.1899814606 -0.68025684357
          -1.412278533 -0.80408602953 -0.58923876286 -1.0904396772 -1.5405486822 -1.1118580103
          -1.0753847361 -1.4751420021 -1.3255844116 -1.1794185638 -1.6438391209 -1.2264505625
          -1.0876896381 -1.0959303379 -1.369597435 -0.98490214348 -1.2230772972 -1.1771838665
          -0.99898988008 -1.3717293739 -0.86172175407 -0.97326618433 -1.6651721001 -1.0754841566
          -0.7631970644 -1.0779976845 -1.5208896399 -1.2397760153 -0.93035340309 -0.94806951284
          -1.5885826349 -0.87199610472 -1.6240876913 -0.86064308882 -1.0669038296 -0.78470677137
          -0.80754196644 -0.83061122894 -1.4594084024 -0.84004515409 -1.0199077129 -0.90738517046
          -1.2384239435 -0.77643769979 -1.1530352831 -1.6182317734 -0.7405564785 -0.82549279928
          -0.7323898077 -1.3410667181 -1.3148729801 -0.8069382906 -0.70438951254 -0.74488031864
          -1.5613616705 -1.1157822609 -1.4139996767 -1.0430227518 -0.85299855471 -0.63076990843
          -0.64339905977 -0.43907028437 -0.61097812653 -1.4288163185 -1.2114175558 -1.0343807936
          -0.4428242445 -0.53363376856 -0.61533027887 -1.4577397108 -0.66049730778 -1.1600915194
          -0.47429513931 -0.53281450272 -0.73692333698 -1.2827961445 -1.145725131 -0.64674931765
          -1.3846176863 -1.1644365788 -0.71780723333 -0.44557902217 -0.61908918619 -0.43552702665
          -1.2210571766 -1.2825551033 -0.31919416785 -0.78222638369 -0.35344806314 -0.64129465818
          -1.1181181669 -0.48365604877 -0.37466350198 -0.64348042011 -0.57832473516 -0.3556908071
          -1.1818362474 -0.32583770156 -1.196606636 -0.63584303856 -0.60099595785 -0.76255774498
          -0.29774343967 -0.63707393408 -0.34085407853 -1.0792177916 -0.37952247262 -0.43864485621
          -0.63262814283 -0.48379287124 -1.1067128181 -0.55826723576 -0.81461244822 -1.1582506895
          -0.24888926744 -0.50705635548 -0.35309308767 -0.58835464716 -1.0982481241 -0.52350085974
          -0.46368831396 -0.61850112677 -0.16658441722 -0.25015369058 -0.61000883579 -0.42215290666
          -0.57949447632 -0.54075908661 -0.58576953411 -0.44115796685 -0.58239525557 -1.0473380089
          -0.86307859421 -0.71487903595 -0.94156467915 -0.59268474579 -0.1228254661 -0.27676615119
          -0.39038518071 -0.48985764384 -0.58690434694 -0.61264890432 -0.53470462561 -0.63435077667
          -0.024154746905 -0.40050005913 -0.4477404356 -0.11855693907 -0.62498134375 -0.76142537594
          -0.86584413052 -0.65946608782 -0.56057262421 -0.51602178812 -0.66879433393 0.027674032375
          -0.41649261117 -0.19015668333 -0.7809907198 -0.49245688319 -0.66956698895 -0.46011027694
          -0.40840983391 -0.010084540583 -0.54345619678 -0.67681920528 0.11284185201 -0.50997626781
          -0.67650449276 -0.57838231325 -0.54101735353 -0.70567965508 -0.74233132601 -0.39929226041
          -0.85827040672 0.18674972653 -0.043315719813 -0.66059988737 -0.42712512612 -0.93081134558
          -0.46890798211 -0.18673288822 -0.86018329859 -0.408218503 -0.49267038703 -0.60658061504
          -0.49016425014 0.27217674255 0.14945709705 -0.35704180598 -0.85857534409 -0.86322367191
          -0.57367193699 -1.0253823996 0.3681692481 -0.8520796895 0.088234975934 -0.49291422963
          -0.2444319874 -1.0363844633 -0.27378129959 -0.37602636218 -0.360650599 -0.25305077434
          -0.31696385145 -0.67148309946 -0.74519431591 -0.99924659729 0.49401172996 -0.214506194
          0.40215659142 0.061737067997 -0.98357200623 -0.97497147322 -0.48904028535 0.35733667016
          0.59904742241 -1.126945734 -0.82256489992 -0.14884988964 -0.16033942997 -0.37624657154
          -0.53862142563 -0.098876401782 -0.12700472772 -1.1939481497 -0.94428741932 0.73775982857
          -0.5238084197 -0.16911303997 -1.1294715405 -1.2012820244 0.7996160984 -0.96713495255
          0.55078142881 -0.29831057787 0.2392270714 0.85140013695 -0.017375247553 -0.25762981176
          -0.69154530764 -0.23341341317 0.056990485638 -1.3468117714 -0.75207650661 0.032911907881
          -0.35313680768 0.92225956917 -1.2752315998 0.98696351051 -1.1884983778 -0.14803029597
          -1.6066000462 1.0548377037 0.78199100494 -0.90383505821 0.31325161457 0.96500205994
          0.15118552744 0.062712445855 -0.53284847736 -0.32130259275 0.21971802413 -1.5052918196
          0.25475752354 -1.0919793844 0.84451782703 -0.091479152441 -1.0656118393 0.79489547014
          -1.8624105453 0.9748968482 0.19199199975 0.98317682743 -0.66862612963 0.31437215209
          0.3417994678 0.47986772656 0.41245925426 0.42366215587 -0.21530082822 -2.1242997646
          -0.33101412654 0.41428369284 -1.556104064 -0.88887149096 -1.9728530645 0.38354021311
          0.34458097816 -0.88126415014 -2.6282835007 0.038860868663 -0.017379166558 0.52252852917
          -0.29043599963 0.22261342406 0.5205219388 0.74172514677 0.66060680151 0.64657741785
          0.55239224434 -2.8878324032 -2.1207785606 0.8568624258 -0.114504233 0.39500832558
          -1.5503388643 -1.0391830206 -3.1708686352 0.42847046256 0.91075772047 -0.15509524941
          0.3073002398 -3.7137145996 -0.4111354053 -2.1892869473 0.80832463503 -1.9317826033
          0.91920351982 0.37557369471 -3.3411781788 1.6862846613 1.0789102316 2.7554848194
          1.0162246227 -1.5143921375 1.0170454979 -0.52317917347 -3.7692511082 -0.060165062547
          -4.6635713577 0.43649455905 1.0419883728 0.44451862574 -0.12127372622 -2.3948075771
          0.59836697578 1.0195801258 -4.287530899 -4.8358387947 -0.6582775116 1.0291105509
          5.6874337196 -3.7450938225 0.83075845242 0.82700383663 4.2044506073 -2.8676753044
          -0.53282999992 0.60567176342 -7.0100607872 2.7590847015 -6.9181566238 0.0069489600137
          0.98151618242 1.685734868 -7.0064983368 0.51038038731 -2.8980863094 -2.0511569977
          0.0074014225975 4.1942529678 -1.9374409914 5.6741652489 0.48897060752 0.24890384078
          -0.33582723141 -0.71516132355 -4.2400307655 0.40154516697 -2.3115866184 0.44741219282
          -0.023594364524 0.52942633629 0.48841923475
        </DataArray>
        <DataArray type="Float32" Name="VELOCITY" NumberOfComponents="3" ComponentName0="X-VELOCITY" ComponentName1="Y-VELOCITY" ComponentName2="Z-VELOCITY" format="ascii" RangeMin="0" RangeMax="8.0495816427">
          0 0 0 0 0 0
          1.7160439491 0.026608843356 0 2.3993964195 0.065055459738 0
          1.6568486691 0.042946591973 0 2.8468351364 0.087323568761 0
          0 0 0 3.225679636 0.027580270544 0
          1.8531969786 0.0069913053885 0 2.7523190975 0.018937431276 0
          0 0 0 3.7483434677 0.024750582874 0
          3.7041432858 0.020260421559 0 4.3080601692 0.043447311968 0
          1.8062058687 0.019666982815 0 2.8929612637 -0.009991703555 0
          0 0 0 4.7783174515 0.059863701463 0
          2.5841090679 -0.028161423281 0 4.81599617 0.012589494698 0
          4.3156065941 -0.0074174972251 0 1.7696291208 -0.020090056583 0
          5.2172226906 0.046985182911 0 0 0 0
          5.6052231789 0.074209228158 0 3.6629388332 -0.042021688074 0
          5.1298880577 -0.02259738557 0 2.5677142143 -0.038624379784 0
          5.6959071159 0.0080952383578 0 1.7739002705 -0.023364355788 0
          5.9999470711 0.053181324154 0 4.9496235847 -0.067161798477 0
          6.3134412766 0.10593912005 0 0 0 0
          4.3807702065 -0.073938637972 0 5.615626812 -0.076821528375 0
          5.9501237869 -0.058986656368 0 3.5278937817 -0.064457960427 0
          6.3143658638 -0.014553790912 0 2.5485060215 -0.046595297754 0
          1.7340489626 -0.019359493628 0 6.631424427 0.065441094339 0
          0 0 0 6.86739254 0.13051784039 0
          5.2495007515 -0.11519808322 0 4.5017204285 -0.086611315608 0
          5.7952327728 -0.12946407497 0 3.576649189 -0.062886193395 0
          6.2822489738 -0.13756798208 0 6.6398186684 -0.10556696355 0
          2.5798585415 -0.045128438622 0 6.8778896332 -0.029906859621 0
          7.002737999 0.066644780338 0 1.6881654263 -0.0078726354986 0
          6.4542989731 -0.1783874929 0 3.4270069599 -0.051876552403 0
          6.8112564087 -0.19373995066 0 0 0 0
          7.1017656326 0.13758221269 0 4.5648841858 -0.07961743325 0
          6.1293563843 -0.15112271905 0 7.0135097504 -0.14121359587 0
          5.5168418884 -0.10312561691 0 2.4805519581 -0.046624831855 0
          7.0981764793 -0.032432746142 0 1.5027308464 -0.010385852307 0
          7.0975670815 0.060646608472 0 6.9598503113 -0.21812485158 0
          5.3612036705 -0.063627496362 0 6.6866226196 -0.17601363361 0
          7.1351699829 -0.12298870832 0 7.1329817772 -0.19369776547 0
          0 0 0 7.1209273338 0.0893323645 0
          3.4669644833 -0.043547082692 0 6.4239253998 -0.11343159527 0
          2.4464995861 -0.035556398332 0 4.6351251602 -0.041733603925 0
          7.0539579391 -0.013815773651 0 6.0896935463 -0.055502530187 0
          1.5115742683 -0.020059593022 0 7.0473747253 0.021145137027 0
          7.2357077599 -0.13349610567 0 7.1529326439 -0.17243051529 0
          7.2779631615 -0.17774713039 0 5.6815710068 -0.0043976292945 0
          6.9861726761 -0.10054415464 0 0 0 0
          7.1164493561 -0.00026050920133 0 3.3356559277 -0.021301576868 0
          7.1229228973 -0.0054890876636 0 6.7389812469 -0.019539359957 0
          2.4707400799 -0.026580506936 0 5.3193464279 0.014708917588 0
          4.4057998657 -0.0066220015287 0 6.4087762833 0.037305761129 0
          1.4785639048 -0.0097891623154 0 7.1002984047 -0.0080292765051 0
          7.0842690468 0.032150603831 0 7.256980896 0.024735687301 0
          7.4058003426 -0.041967380792 0 7.4093170166 -0.070342764258 0
          7.4987902641 -0.081677176058 0 3.483083725 -0.0069790109992 0
          6.1007504463 0.082648344338 0 7.2460551262 0.009483746253 0
          0 0 0 7.1470632553 -0.067056380212 0
          6.9905524254 0.082146570086 0 2.4804480076 -0.018790205941 0
          5.5427260399 0.072155706584 0 7.159573555 0.13240379095 0
          6.7619328499 0.13672174513 0 1.4592162371 -0.014210090041 0
          7.0833973885 -0.033838842064 0 7.6432490349 -0.0094959856942 0
          7.5552124977 0.01520460099 0 7.552631855 0.054322652519 0
          7.3241529465 0.16121953726 0 4.778842926 0.047746356577 0
          6.440144062 0.15967646241 0 3.4765758514 0.0062924036756 0
          7.3926115036 0.090678609908 0 7.0743985176 0.074730753899 0
          0 0 0 7.0801672935 -0.12071707845 0
          2.543166399 0.001084394753 0 7.1755180359 0.16127817333 0
          7.1064128876 0.23446130753 0 1.6220691204 -0.0025120819919 0
          5.9896702766 0.1358024627 0 6.975631237 -0.039305407554 0
          7.6699986458 0.0036954367533 0 7.0006198883 0.19620785117 0
          7.569668293 0.051460139453 0 4.5574188232 0.047355156392 0
          7.6073718071 0.027772322297 0 7.0040230751 0.17280097306 0
          7.3147802353 0.17484396696 0 7.4545822144 0.09754473716 0
          0 0 0 6.8627057076 -0.13833023608 0
          5.496014595 0.097102962434 0 3.0703196526 0.016297047958 0
          6.841714859 0.076067499816 0 7.059109211 0.26884293556 0
          7.2713260651 0.16112019122 0 6.9188051224 0.2065449208 0
          7.593023777 -0.040275786072 0 6.8637113571 0.24972479045 0
          7.4904117584 -0.015348684043 0 1.5521976948 -0.012776955962 0
          6.6810116768 -0.046491678804 0 6.3799309731 0.15437822044 0
          6.6336297989 0.1647824347 0 7.5326366425 -0.023596990854 0
          6.9514670372 0.2091756314 0 4.9312653542 0.05501408875 0
          7.3916568756 0.061379052699 0 0 0 0
          6.3690490723 -0.099494703114 0 7.1369557381 0.091909274459 0
          7.2040743828 0.15043155849 0 6.4228863716 0.052845474333 0
          6.1077256203 0.10566954315 0 2.7166643143 0.020198717713 0
          6.8697719574 0.13456588984 0 1.4609793425 -0.0094530759379 0
          6.5380029678 0.24219350517 0 3.7827675343 0.015109404922 0
          6.0476384163 -0.031074879691 0 7.4093990326 -0.13224838674 0
          7.08289814 0.1194480285 0 6.1166749001 0.11702552438 0
          6.630197525 0.094794876873 0 6.1975035667 0.19398988783 0
          4.8327269554 0.041958399117 0 7.3921771049 -0.095727272332 0
          7.0166683197 -0.063734740019 0 0 0 0
          5.6384940147 -0.065970942378 0 5.7460780144 0.061838313937 0
          6.4737577438 0.14288854599 0 7.3053593636 -0.0012131134281 0
          7.1688137054 0.072171844542 0 2.2436535358 0.042516008019 0
          6.9700093269 0.040451746434 0 5.5382447243 0.051810704172 0
          5.9018263817 0.18125760555 0 3.1966118813 -0.00058324227575 0
          6.3869290352 0.027641797438 0 5.306912899 -0.017345767468 0
          6.5044231415 0.018701108173 0 4.402422905 0.028979932889 0
          7.1058187485 0.014100856148 0 5.3665266037 0.11265906692 0
          5.8315577507 0.15507011116 0 6.9701776505 -0.18270269036 0
          6.7537474632 -0.026841552928 0 5.3844151497 0.012725438923 0
          7.1802554131 -0.20769636333 0 5.3323383331 0.14290030301 0
          7.2232122421 -0.13663583994 0 0 0 0
          4.7926802635 -0.041920863092 0 1.6702563763 0.036062527448 0
          6.5119743347 -0.10466334969 0 6.0775408745 -0.023924531415 0
          5.8597617149 0.075278148055 0 2.6409862041 -0.010164371692 0
          7.0128107071 -0.063488289714 0 4.673635006 0.028346605599 0
          7.214550972 -0.037511710078 0 7.1516456604 0.0075249159709 0
          3.8369061947 0.02197224088 0 5.1468729973 0.1318128556 0
          6.5231661797 -0.10124697536 0 4.9024710655 0.0049388883635 0
          4.3357357979 -0.01676861383 0 6.5455822945 -0.15893828869 0
          5.8969182968 -0.0089921075851 0 6.8419065475 -0.21746587753 0
          4.3603096008 0.063876084983 0 5.170276165 0.10477893054 0
          4.5016942024 0.093285940588 0 7.1569571495 -0.057433094829 0
          5.7215986252 -0.048214279115 0 7.0139946938 -0.20605283976 0
          6.8702712059 -0.15415179729 0 2.2874259949 0.018107479438 0
          3.823122263 -0.014260783792 0 0 0 0
          4.47427845 0.10544452071 0 7.1782217026 0.0032317223959 0
          6.0055875778 -0.076315805316 0 3.2631304264 0.010333978571 0
          6.240272522 -0.13472335041 0 3.8487670422 0.024148041382 0
          7.0655412674 -0.1306077987 0 5.1555399895 0.059685271233 0
          4.3728246689 0.012379908934 0 7.1230044365 -0.1437779367 0
          7.1991829872 -0.0013833378907 0 5.2965688705 -0.039533473551 0
          6.6557626724 -0.21155910194 0 4.3075847626 0.092741876841 0
          7.085357666 -0.022786013782 0 1.6271178722 -0.0015959604643 0
          6.3012456894 -0.16938303411 0 3.6459379196 0.061151497066 0
          3.2874653339 0.005781953223 0 5.2489147186 0.010534974746 0
          6.6117830276 -0.19266055524 0 5.9271192551 -0.12939214706 0
          4.3347091675 0.085164919496 0 3.6245844364 0.067999690771 0
          7.2715163231 -0.063966490328 0 6.8719906807 -0.15486261249 0
          2.416932106 0.0020241492894 0 7.0310649872 -0.22009463608 0
          7.1605262756 0.061216894537 0 0 0 0
          2.9573502541 -0.052919201553 0 3.552513361 0.069310486317 0
          2.9948952198 0.036415006965 0 4.3972530365 0.0588218458 0
          6.3788514137 -0.2181198597 0 6.9569339752 -0.041489329189 0
          2.7820565701 0.016024883837 0 5.4276990891 -0.069967187941 0
          4.8415493965 -0.015484759584 0 3.7679018974 0.012572485954 0
          5.6290836334 -0.1013623327 0 7.3039336205 -0.14679208398 0
          3.5694811344 0.073708042502 0 7.2830462456 0.068206012249 0
          6.0527143478 -0.1604078263 0 1.5871942043 -0.01486960426 0
          7.0222234726 0.086155258119 0 2.7043395042 0.048290576786 0
          6.8763012886 -0.24575331807 0 2.3778996468 -0.036693885922 0
          6.3935031891 -0.1518035382 0 4.3623991013 0.019443035126 0
          2.6749706268 0.048333186656 0 6.6911907196 -0.081148944795 0
          3.5042219162 0.064850121737 0 6.0384912491 -0.16619956493 0
          7.4439787865 0.0017411736771 0 7.2553281784 -0.1960618794 0
          7.1456274986 0.16872060299 0 1.8762102127 -0.0094959987327 0
          0 0 0 2.5018749237 -0.0059840739705 0
          2.6544435024 0.052743058652 0 6.7858190536 0.052185531706 0
          1.7107970715 -0.034819148481 0 3.4998338223 0.046104632318 0
          1.8211300373 0.015035328455 0 5.5870909691 -0.078904233873 0
          4.7019233704 -0.0029021936934 0 5.0831160545 -0.087095350027 0
          7.5333371162 -0.070904262364 0 1.8049407005 0.014573452063 0
          7.3475322723 0.16717903316 0 4.3091831207 -0.019090877846 0
          2.6305873394 0.0511116907 0 5.6869921684 -0.12473388016 0
          6.7225399017 -0.19896999002 0 1.5898720026 -0.0089008044451 0
          6.1448383331 -0.10096683353 0 6.8900203705 0.19034029543 0
          1.7415128946 0.01706908457 0 7.1758275032 -0.17643858492 0
          3.6659965515 0.020131884143 0 3.4994573593 0.028148556128 0
          1.7002170086 0.020269120112 0 6.3926348686 -0.011528775096 0
          6.2874908447 -0.13661164045 0 2.5466372967 0.044562812895 0
          7.5882906914 0.086032092571 0 7.5275235176 -0.098073169589 0
          7.0599756241 0.26173070073 0 0 0 0
          0 0 0 0 0 0
          0 0 0 2.5288925171 -0.0025610476732 0
          1.6568160057 0.018634531647 0 0 0 0
          6.5366396904 0.13082371652 0 2.5789804459 0.030763529241 0
          3.9993212223 -0.03237554431 0 5.3480610847 -0.016763538122 0
          3.4191782475 -0.0049055395648 0 4.6447691917 -0.056880548596 0
          4.5155849457 0.017783371732 0 0 0 0
          5.3333382607 -0.082559727132 0 7.7219724655 0.0075012287125 0
          7.3473601341 -0.064020812511 0 1.6090166569 0.01481991075 0
          7.3193359375 0.23172022402 0 1.5494465828 -0.0052054356784 0
          3.6252505779 0.02947720699 0 5.8012938499 -0.044340193272 0
          6.6713609695 0.25171163678 0 0 0 0
          5.9677457809 -0.043689813465 0 6.9277420044 -0.0074906605296 0
          0 0 0 6.0802083015 0.050782635808 0
          1.482742548 0.011754420586 0 0 0 0
          6.8692975044 0.2839166224 0 7.626721859 0.10961489379 0
          2.4372096062 0.020952206105 0 7.7291407585 0.011097948998 0
          2.5489788055 0.0069424412213 0 3.665135622 -0.028986547142 0
          0 0 0 6.2424616814 0.17713844776 0
          5.0275073051 -0.052065525204 0 4.1908268929 -0.026736004278 0
          1.5269949436 0.01040582452 0 4.3763327599 0.034079112113 0
          2.8223471642 8.6559870397e-005 0 1.5392378569 -0.0089528569952 0
          7.7539014816 0.028929134831 0 0 0 0
          7.1262378693 0.21041451395 0 7.5789523125 0.081288687885 0
          5.4028139114 0.0012891084189 0 5.937233448 0.041408196092 0
          3.6969747543 0.024910280481 0 6.3983101845 0.26043462753 0
          5.1886510849 0.031678881496 0 6.8182139397 0.14260880649 0
          5.7101430893 0.075768783689 0 0 0 0