<?xml version="1.0"?>
<VTKFile type="PolyData" version="0.1" byte_order="LittleEndian" compressor="vtkZLibDataCompressor">
  <PolyData>
    <Piece NumberOfPoints="1041" NumberOfVerts="0" NumberOfLines="0" NumberOfStrips="0" NumberOfPolys="1940">
      <PointData>
        <DataArray type="Float32" Name="PRESSURE" format="ascii" RangeMin="-9.2416286469" RangeMax="5.6404461861">
          0 0.27562999725 0 0.10048475116 0.18896396458 0
          0.037081576884 0.014138344675 0.1587819308 0.027108257636 0.14269675314 0
          -0.039703555405 -0.051923755556 0.066081419587 -0.093777313828 0.0055831810459 0
          -0.17967046797 -0.20279167593 -0.190990448 -0.17115603387 -0.14192578197 -0.25004950166
          0 -0.2998996973 -0.31279540062 -0.30887812376 -0.25073769689 -0.37220823765
          -0.15393795073 -0.37980440259 0 -0.44759625196 -0.4424418509 -0.42025434971
          -0.3598716259 -0.43947851658 -0.28971713781 -0.5001527071 -0.59144389629 -0.16242516041
          -0.64747416973 0 -0.49428707361 -0.55397754908 -0.49110299349 -0.56835740805
          -0.46162381768 -0.39041948318 -0.61464214325 -0.29227817059 -0.14310476184 -0.70460313559
          -0.50001394749 -0.7321716547 -0.46077445149 -0.6898778677 0 -0.65357881784
          -0.56203061342 -0.38604107499 -0.60312962532 -0.84739857912 -0.22873756289 -0.87460821867
          -0.11209537834 -0.51220798492 -0.76491349936 -0.55242407322 -0.35364162922 -0.45952942967
          -0.96239334345 0 -0.97155290842 -0.62514400482 -1.0043770075 -0.8770968914
          -0.24117130041 -0.70856308937 -1.1221871376 -0.1250525862 -0.43444445729 -0.58934700489
          -0.54005223513 -0.89671212435 -0.65236437321 -1.169680953 0 -1.186648488
          -0.358543396 -0.77027446032 -1.2387113571 -1.0919674635 -1.1853660345 -0.91192913055
          -1.3328623772 -0.11146704108 -0.22264689207 -0.45311376452 -0.51750284433 -0.70111775398
          -0.61875808239 -1.4048559666 -1.1426433325 -0.79265594482 -1.3789881468 0
          -0.92116069794 -1.4873443842 -1.3883086443 -0.39431020617 -1.1569355726 -1.6220918894
          -0.13922949135 -0.73647516966 -0.83525872231 -0.6249012351 -0.55232912302 -1.5561771393
          -1.3764928579 -1.6483557224 -0.9692055583 -0.26803791523 -1.7054431438 0
          -1.6845207214 -1.1583080292 -0.47545856237 -1.8441616297 -1.7216099501 -0.16149118543
          -0.84055751562 -1.3989627361 -0.71177351475 -1.694111824 -1.0066158772 -0.39199855924
          -0.64998394251 -1.141094327 -1.7722252607 0 -1.9111011028 -1.8376777172
          -0.30639868975 -0.55958533287 -1.3564050198 -1.6886770725 -1.0453681946 -0.50465536118
          -0.84063887596 -2.0053527355 -0.15860010684 -1.8933012486 -0.4516004622 -1.189104557
          -0.60860794783 -2.0093569756 -1.415951848 -1.9670441151 0 -0.7384968996
          -1.6317336559 -0.29427042603 -2.041074276 -1.840667367 -1.9421415329 -2.3242897987
          -0.55098003149 -2.0057885647 -0.16653381288 -1.139472723 -1.8807393312 -0.39302781224
          -2.0321056843 -0.48110216856 -1.9758838415 -1.4400084019 -0.95627808571 -1.9755769968
          0 -2.0165863037 -0.67692250013 -1.6131675243 -1.8132144213 -1.9441350698
          -1.9962186813 -0.29676434398 -0.55234533548 -1.9426715374 -2.0314333439 -0.14843094349
          -0.81901019812 -1.9881564379 -1.9287854433 -0.42916724086 -0.60935181379 -1.2551679611
          -2.0362713337 -1.9927867651 -1.4978535175 -0.50695860386 -1.6821118593 -1.9775551558
          0 -1.860096693 -1.0643708706 -1.9851925373 -0.75204259157 -1.9796460867
          -1.9962168932 -0.23449908197 -1.8301714659 -1.8792457581 -1.9447323084 -0.56396442652
          -1.9963827133 -1.9511163235 -0.081014342606 -1.2774078846 -0.92592382431 -1.570555687
          -0.30319395661 -0.67398387194 -0.44070956111 -1.9358533621 -1.9332798719 -1.7799729109
          -2.002245903 -1.8468328714 0 -1.7596869469 -0.50337797403 -1.9462598562
          -1.224619031 -1.9051537514 -1.9256418943 -0.080810382962 -1.9373604059 -0.84741139412
          -1.9014639854 -1.9461810589 -1.921807766 -1.8901942968 -1.9663956165 -0.64218878746
          -2.0009057522 -1.8070811033 -1.5683971643 -0.34791862965 -0.057549037039 -1.0795958042
          -1.8769520521 -1.8750482798 -0.74809646606 -0.42482852936 -1.9397090673 -2.0199084282
          -1.8957806826 -1.9415380955 -1.9710528851 -1.8330253363 0 -0.53589004278
          -0.16358843446 -0.94200259447 -1.9117058516 -2.0774571896 -0.080068491399 -1.4866756201
          -1.8961943388 -1.9226740599 -1.8887500763 -1.9598309994 -0.66504746675 -1.933218956
          -1.8376797438 -1.9805248976 -2.0450384617 -0.26203849912 -1.9506549835 0.052693795413
          -2.0613074303 -1.2149808407 -0.42516162992 -2.1297779083 -0.86920011044 -1.9291864634
          -1.9494017363 -1.9835181236 -1.9889421463 0 -2.0215630531 -2.0474541187
          -0.58736330271 -2.1133191586 0.098224386573 -1.0313497782 0.029874173924 -1.9363564253
          -2.0242438316 -1.8329085112 -1.9968869686 -0.097613543272 -1.9601147175 -1.5077985525
          -0.74286627769 -1.9993783236 -1.9521838427 -2.1781108379 -2.1459231377 -2.0404582024
          -0.31960615516 -1.9755940437 -2.1416497231 -1.291416049 -0.49307903647 -2.1352303028
          -2.0344822407 -0.98037278652 -1.9997996092 -2.0293917656 -1.9942804575 0
          -2.1953690052 0.1177707836 0.00018489127979 -2.2674739361 -0.68652915955 0.026517292485
          -2.062407732 -1.1428700686 -1.740375638 -2.1068103313 -1.5217008591 -2.032456398
          -2.2399418354 -0.14995098114 -2.1371712685 -2.0485608578 -2.0423767567 -0.81726723909
          -1.9978280067 -2.3861145973 -2.3588504791 -2.1468167305 -1.9833521843 -0.35061639547
          -2.1535899639 -2.1576051712 -0.53892689943 -2.0828924179 -1.0895086527 -2.4209318161
          -1.9749865532 -2.03896451 -1.4821269512 -2.0945491791 -2.5050201416 -1.8554553986
          -0.71481072903 -1.9934314489 -2.1265730858 -2.1496415138 -1.2421170473 -2.5337197781
          -1.8205724955 -2.6267375946 -2.1131286621 -0.87919968367 -1.9801939726 -2.1799235344
          -2.0864245892 -2.4286344051 -2.6586165428 -1.9420007467 -2.5924067497 -2.3656420708
          -1.9871890545 -1.1343135834 -2.0698025227 -1.4555748701 -2.6681134701 -1.9995820522
          -2.7371242046 -2.1644108295 -1.9674710035 -2.1359786987 -1.915506959 -2.3248691559
          -2.8114471436 -2.1018493176 -1.777256012 -1.1831891537 -2.7090914249 -2.8396792412
          -1.9390628338 -2.179762125 -2.0336585045 -2.0143017769 -2.3022649288 -2.6186130047
          -2.9004402161 -1.9748489857 -1.6285264492 -1.9405577183 -2.8971779346 -2.5382938385
          -2.8524680138 -2.1726808548 -2.9249522686 -2.0026140213 -2.2918310165 -2.0276074409
          -1.9901093245 -1.9390485287 -2.163159132 -1.8413062096 -2.484360218 -2.0311355591
          -2.9235293865 -3.0579035282 -2.9700756073 -2.3023116589 -3.0311770439 -2.1659369469
          -1.9394783974 -2.438577652 -2.8480558395 -1.9470404387 -2.0249488354 -2.4553868771
          -1.9130737782 -2.9647095203 -2.6641128063 -3.111782074 -2.032235384 -2.3415374756
          -3.1514918804 -3.0333147049 -2.4615411758 -1.9979792833 -1.9657979012 -2.5798354149
          -2.1795897484 -3.0070769787 -3.0471820831 -2.4968860149 -2.1593689919 -3.1288256645
          -2.3643038273 -2.5819835663 -2.9198050499 -1.944062829 -1.9095098972 -1.9681047201
          -3.068874836 -2.0409574509 -2.0835072994 -3.0099599361 -3.1485602856 -2.6102888584
          -2.5332989693 -3.0774698257 -2.821202755 -1.9447137117 -3.0185530186 -2.7091293335
          -2.2262701988 -3.0420854092 -2.0795106888 -2.4259772301 -2.7274241447 -3.1117055416
          -2.6136317253 -1.82878232 -2.9018144608 -2.7196762562 -2.1838254929 -3.0989379883
          -2.9898912907 -3.1051290035 -3.0190668106 -2.8124306202 -1.7824364901 -2.09745121
          -2.9948399067 -2.8027861118 -2.8442881107 -2.9622936249 -2.8903305531 -2.0373561382
          -2.9841320515 -2.7265541553 -2.5786738396 -2.7539322376 -2.4197618961 -2.952943325
          -2.9027810097 -1.8881105185 -2.778886795 -2.9549152851 -2.2962803841 -2.8928442001
          -2.8612046242 -2.8628575802 -2.7841610909 -2.8764441013 -2.195309639 -2.7972984314
          -2.69825387 -2.7962338924 -2.8066737652 -2.0444190502 -2.4600207806 -2.6838171482
          -2.8964829445 -2.9985301495 -2.6669616699 -2.8316147327 -2.6722323895 -2.7124068737
          -2.9748780727 -2.4195382595 -2.7156927586 -2.6190412045 -2.5784754753 -2.627196312
          -2.9721989632 -2.7510266304 -2.2080540657 -2.6053357124 -3.0451776981 -2.5826368332
          -2.600946188 -2.6725597382 -2.5152611732 -2.508292675 -2.4641728401 -3.0025477409
          -2.6102750301 -2.8183956146 -3.0190706253 -2.3974077702 -2.5786924362 -2.8835046291
          -2.5261802673 -2.4786570072 -2.3616192341 -2.4142599106 -2.8751363754 -2.619863987
          -2.272465229 -3.0610127449 -2.7930111885 -2.7317349911 -2.3204920292 -2.2480611801
          -2.3884165287 -2.3779063225 -2.1620337963 -2.6224453449 -2.1663303375 -2.6620914936
          -2.2942750454 -2.9214506149 -2.4368424416 -2.9870119095 -2.2967550755 -2.8920941353
          -2.1558511257 -2.1371998787 -2.7190716267 -2.8185389042 -2.044727087 -2.9771723747
          -2.463919878 -2.6944851875 -1.9286174774 -2.2510004044 -2.256783247 -2.202381134
          -1.9198317528 -2.5104804039 -2.7893514633 -1.946537137 -2.9024202824 -2.2754282951
          -2.2362964153 -2.8906991482 -1.9967287779 -2.2146303654 -2.8398623466 -1.9478684664
          -1.8877353668 -2.1179265976 -2.318883419 -2.8587975502 -1.7573281527 -2.5546243191
          -2.2716891766 -1.7479407787 -2.1523189545 -2.1362650394 -1.8013589382 -2.3267681599
          -2.6093320847 -2.8657507896 -1.8932421207 -2.7914831638 -2.0101525784 -2.8337953091
          -2.1091966629 -2.0333983898 -1.866335392 -2.1205039024 -1.8161238432 -1.721858263
          -2.0827262402 -2.077183485 -1.691029191 -2.6417224407 -2.0839130878 -2.353089571
          -2.6838414669 -1.7923870087 -2.0126562119 -2.1231491566 -2.7699978352 -1.8783687353
          -2.7880914211 -2.0788168907 -2.0156438351 -2.3816022873 -2.0225250721 -2.0972709656
          -1.880863905 -1.9291681051 -1.8828181028 -1.9171460867 -2.0909705162 -1.8108654022
          -1.9938693047 -1.9387018681 -2.1460776329 -2.4530317783 -2.6316347122 -1.8636555672
          -2.100099802 -2.0446631908 -2.6857230663 -1.8911306858 -2.1812012196 -2.136592865
          -1.8834372759 -1.9908697605 -2.2269635201 -2.0265200138 -1.9437087774 -2.172637701
          -2.0336048603 -2.0985071659 -1.7996680737 -2.1742753983 -2.2372477055 -2.458067894
          -2.3255155087 -2.2837350368 -2.5240528584 -1.9477992058 -2.0125405788 -2.2382211685
          -2.0947284698 -1.735388875 -2.5288848877 -2.2623751163 -1.9069738388 -2.5224702358
          -2.2394697666 -2.4821059704 -1.7797939777 -2.1805138588 -2.5801439285 -2.5392608643
          -2.0653629303 -2.2524898052 -2.269472599 -2.4261336327 -1.8169159889 -2.4907383919
          -2.3328971863 -2.9126966 -2.2042386532 -1.8687099218 -2.4606258869 -2.4662265778
          -1.7583045959 -2.9502079487 -2.1194906235 -3.0206172466 -2.5207147598 -2.8022782803
          -3.1067578793 -2.5450050831 -1.8023843765 -2.6459934711 -2.1584527493 -2.1925199032
          -2.5932600498 -2.9836471081 -2.0167553425 -2.0077755451 -2.7501337528 -3.2110548019
          -2.8020040989 -2.5945215225 -1.9001169205 -2.8270685673 -2.9622161388 -3.0904126167
          -1.9385948181 -2.187861681 -2.4291474819 -2.1322715282 -2.9781768322 -2.8356263638
          -2.9747335911 -3.355758667 -2.9360229969 -1.9862148762 -2.0828065872 -3.024305582
          -3.2514386177 -3.3440115452 -3.3139872551 -2.3026163578 -2.9639716148 -2.8504447937
          -3.1854329109 -3.0358190536 -3.0873305798 -2.006731987 -2.1437528133 -3.1550328732
          -2.2382137775 -2.8832840919 -3.2723286152 -3.0436272621 -3.0255422592 -3.1039097309
          -2.2878966331 -2.2098135948 -3.2555706501 -3.2831807137 -3.2012205124 -3.1297338009
          -2.7269408703 -3.2214393616 -3.1876482964 -3.2788603306 -3.1343097687 -3.2169559002
          -2.2501456738 -3.1903729439 -2.2003364563 -2.9634878635 -3.362234354 -3.1785867214
          -3.1872069836 -2.9922842979 -3.1563205719 -2.6320044994 -3.0865340233 -2.9863750935
          -3.1449980736 -3.0017409325 -2.4361402988 -3.0127284527 -2.9754612446 -2.1343822479
          -3.2764117718 -3.3775224686 -3.129178524 -2.9132635593 -2.249818325 -3.2287430763
          -2.942401886 -2.8770046234 -3.2879517078 -3.1926689148 -2.9349126816 -3.2908504009
          -2.8695628643 -3.2691419125 -3.0375034809 -2.9991009235 -2.855853796 -2.3440635204
          -2.7657027245 -3.0502543449 -2.5483675003 -2.9003555775 -3.3622536659 -3.1710710526
          -3.2651684284 -3.0742359161 -2.9033720493 -2.89727211 -2.9416947365 -2.8970658779
          -3.4032325745 -3.0464529991 -3.0711169243 -3.3069925308 -2.8720953465 -2.8228080273
          -2.6229858398 -2.9731690884 -2.8760750294 -3.1791539192 -2.8383436203 -3.49330616
          -3.1961269379 -3.2399501801 -2.8334033489 -2.8930165768 -2.8556587696 -3.0526781082
          -3.067918539 -3.4195027351 -2.9702281952 -2.8862037659 -3.5414619446 -3.0953559875
          -2.8651573658 -3.04129076 -2.9055409431 -2.9037530422 -2.8503017426 -3.1965806484
          -2.8392596245 -3.6697199345 -3.4814448357 -2.8325812817 -3.0872008801 -2.8261191845
          -3.0627365112 -3.2969744205 -2.7976999283 -3.1834778786 -3.0746338367 -3.0194602013
          -2.975943327 -3.7387504578 -3.6497769356 -3.1784822941 -2.8745582104 -2.8512907028
          -2.9031832218 -2.8403959274 -3.8964936733 -2.8738176823 -3.6705374718 -2.9543433189
          -3.3393251896 -2.7260103226 -3.1927492619 -3.036290884 -3.1846551895 -3.287399292
          -3.2105441093 -2.9102754593 -3.013210535 -2.7428703308 -4.013425827 -3.2463204861
          -4.0108399391 -3.7180659771 -2.8551900387 -2.8392517567 -3.0349776745 -4.1061320305
          -4.1631217003 -2.7057790756 -2.9343957901 -3.4902191162 -3.2997596264 -3.0920972824
          -3.2230482101 -3.3655538559 -3.3104839325 -2.6251051426 -2.9972889423 -4.2345190048
          -3.0387432575 -3.2567529678 -2.7256493568 -2.6903717518 -4.4526834488 -2.8677940369
          -4.5311985016 -3.2071318626 -4.2651963234 -4.3533344269 -3.3968527317 -3.7109375
          -3.0184876919 -3.2508528233 -3.5031423569 -2.5609409809 -3.2453212738 -3.4492702484
          -3.2139611244 -4.3588924408 -2.6950159073 -4.5519452095 -2.7324297428 -3.3621025085
          -2.3842582703 -4.858332634 -4.9815363884 -2.9844210148 -4.5856451988 -4.3642320633
          -3.5565493107 -3.5935540199 -3.2404220104 -3.9343817234 -3.6669352055 -2.465834856
          -3.7297978401 -2.9955141544 -4.2032608986 -3.6543684006 -2.8762433529 -4.2363061905
          -2.3132677078 -4.5557222366 -3.9117949009 -4.7489686012 -3.3653988838 -3.7682507038
          -4.521982193 -3.9357140064 -3.9080934525 -3.9907493591 -3.7701933384 -2.0693950653
          -3.782356739 -4.1452555656 -2.6098852158 -3.3081440926 -2.4703843594 -3.840914011
          -4.4030532837 -3.2500882149 -1.5979350805 -3.591272831 -3.6227064133 -3.799819231
          -3.9404428005 -3.7407824993 -3.9998846054 -4.1793990135 -4.6717090607 -4.1655759811
          -4.1900606155 -1.3684079647 -2.2864482403 -4.4953985214 -3.9834897518 -4.6311321259
          -3.1587541103 -3.1502945423 -1.7046726942 -3.7716012001 -4.9977025986 -4.0379958153
          -3.8162863255 -0.28199407458 -3.7980120182 -3.5156075954 -4.2577524185 -1.9703215361
          -4.3751740456 -4.5128493309 -1.5642443895 -2.1325092316 -4.8390855789 -5.120267868
          -4.5334653854 -3.1482698917 -4.7564167976 -6.2551350594 -2.4363172054 -4.0201582909
          0.68824768066 -3.8337597847 -4.5411877632 -3.8959183693 -4.0162334442 -3.6184813976
          -4.2290534973 -4.420176506 -1.7397390604 0.92759615183 -0.13918730617 -4.3905000687
          -3.3963272572 -2.4337232113 -4.2473220825 -4.2202095985 -9.2174930573 -7.8142986298
          -6.2987756729 -3.9157965183 0.85999721289 -5.1332368851 5.6404461861 -3.576884985
          -4.2826714516 -2.1712427139 0.70847856998 -3.9261884689 -7.8380088806 -1.8757795095
          -3.6289668083 -9.2416286469 -3.5269794464 -3.4235508442 -3.8767809868 -3.7396597862
          -3.8694028854 -0.11594703794 -1.7123060226 -3.8507425785 -3.5911529064 -3.7770247459
          -4.0881237984 -3.9412875175 -3.8591561317
        </DataArray>
        <DataArray type="Float32" Name="VELOCITY" NumberOfComponents="3" ComponentName0="X-VELOCITY" ComponentName1="Y-VELOCITY" ComponentName2="Z-VELOCITY" format="ascii" RangeMin="0" RangeMax="8.6528587341">
          0 0 0 0 0 0
          3.1814832687 -0.01466588676 0 4.214823246 0.06678750366 0
          3.0295064449 0.12575769424 0 4.6286454201 0.050056837499 0
          0 0 0 4.2993245125 -0.16429173946 0
          3.3457760811 0.039398368448 0 4.1643223763 -0.075894594193 0
          0 0 0 4.3616466522 -0.21574270725 0
          4.1813158989 -0.17952305079 0 4.3361473083 -0.24176004529 0
          3.2825739384 -0.0067893587984 0 4.042245388 -0.083544313908 0
          0 0 0 4.5557022095 -0.29955911636 0
          3.8431966305 -0.083979614079 0 4.4553189278 -0.2639670074 0
          4.1904158592 -0.23561629653 0 3.1768219471 -0.031570531428 0
          4.7686591148 -0.29849290848 0 0 0 0
          5.1014690399 -0.34080290794 0 3.9228098392 -0.19125726819 0
          4.7298722267 -0.22403526306 0 3.7654306889 -0.12070095539 0
          5.1988105774 -0.25319397449 0 3.1472194195 -0.0403646864 0
          5.4330821037 -0.28837251663 0 4.6059498787 -0.19174128771 0
          5.6546759605 -0.29880100489 0 0 0 0
          4.2404236794 -0.18637530506 0 5.2207679749 -0.17977046967 0
          5.4602155685 -0.19488058984 0 3.8758587837 -0.17239354551 0
          5.6946363449 -0.23361666501 0 3.6582131386 -0.13191688061 0
          3.0705192089 -0.031959034503 0 5.8998126984 -0.26051601768 0
          0 0 0 6.0423007011 -0.25662598014 0
          5.0096931458 -0.1593350172 0 4.3198618889 -0.17643870413 0
          5.484691143 -0.12256668508 0 3.8881702423 -0.20173600316 0
          5.8364362717 -0.10652490705 0 6.0395154953 -0.13743752241 0
          3.5715334415 -0.14091470838 0 6.179189682 -0.17724974453 0
          6.2498788834 -0.20834712684 0 2.9649312496 -0.017652830109 0
          6.0957512856 -0.044886019081 0 3.8080437183 -0.21555799246 0
          6.3086576462 -0.036123499274 0 0 0 0
          6.3525176048 -0.18729710579 0 4.4000253677 -0.20198571682 0
          5.9052324295 -0.078105598688 0 6.4411025047 -0.065972872078 0
          5.3696269989 -0.15135522187 0 3.4128227234 -0.15495090187 0
          6.5143899918 -0.11766349524 0 2.6696550846 -0.030848713592 0
          6.5377011299 -0.13039655983 0 6.5031237602 0.030046129599 0
          5.24436903 -0.19975760579 0 6.3844041824 -0.01128671132 0
          6.6500372887 -0.032660104334 0 6.6106233597 0.027645736933 0
          0 0 0 6.513715744 -0.084687761962 0
          3.7831873894 -0.21099595726 0 6.2402429581 -0.090506732464 0
          3.3217074871 -0.15295663476 0 4.4627141953 -0.24619479477 0
          6.6901097298 -0.057640112936 0 5.9578819275 -0.15803994238 0
          2.6165456772 -0.057694524527 0 6.6431951523 -0.024506779388 0
          6.7393484116 0.028646897525 0 6.6307754517 0.028605174273 0
          6.6837234497 0.061065576971 0 5.5696048737 -0.23272030056 0
          6.5883193016 -0.057581461966 0 0 0 0
          6.5716114044 0.01534646377 0 3.6707499027 -0.23164650798 0
          6.7909007072 0.0085478238761 0 6.4608230591 -0.17259077728 0
          3.2190203667 -0.16188083589 0 5.1580152512 -0.26340711117 0
          4.2470779419 -0.25816881657 0 6.1848087311 -0.25123509765 0
          2.497467041 -0.0486398004 0 6.6418762207 0.070484250784 0
          6.7414250374 0.051970552653 0 6.7992434502 0.015264383517 0
          6.7706813812 0.029100598767 0 6.706372261 -0.018795020878 0
          6.713619709 0.038480713964 0 3.7006225586 -0.24030715227 0
          5.875626564 -0.30201274157 0 6.7107548714 -0.14282670617 0
          0 0 0 6.5246424675 0.12244272232 0
          6.6078915596 -0.25744530559 0 3.1189317703 -0.14938177168 0
          5.2856011391 -0.29189541936 0 6.7601585388 0.03656989336 0
          6.4140853882 -0.31575065851 0 2.3987863064 -0.069595597684 0
          6.5185155869 0.16221740842 0 6.7135586739 0.0082788933069 0
          6.7683792114 -0.079964004457 0 6.7421126366 0.0024930159561 0
          6.7581806183 -0.013257914223 0 4.468079567 -0.23442649841 0
          6.112839222 -0.31989124417 0 3.6229152679 -0.19880002737 0
          6.8332304955 -0.2082413882 0 6.5493974686 0.14304316044 0
          0 0 0 6.3530826569 0.21187034249 0
          3.0816233158 -0.1185156703 0 6.7688651085 -0.3050814271 0
          6.615562439 0.014213148504 0 2.5079083443 -0.048975169659 0
          5.6044020653 -0.25940933824 0 6.3004007339 0.23474821448 0
          6.7853307724 0.03906012699 0 6.6005344391 -0.31011322141 0
          6.7547512054 0.045328531414 0 4.2728056908 -0.21105055511 0
          6.9175729752 -0.046504992992 0 6.4509525299 0.10323331505 0
          6.6876497269 -0.0087399734184 0 7.0493254662 -0.16741637886 0
          0 0 0 6.0796074867 0.28789001703 0
          5.0802402496 -0.1958617568 0 3.2833623886 -0.12050493807 0
          6.1853871346 0.21646779776 0 6.5518832207 -0.0064971069805 0
          7.0272212029 -0.23964549601 0 6.5506644249 -0.26499736309 0
          6.9192285538 0.10874851793 0 6.3544721603 0.054013129324 0
          6.7995066643 0.14988337457 0 2.3516480923 -0.056257907301 0
          5.9513540268 0.29370525479 0 5.9597420692 -0.15448178351 0
          6.0470342636 0.16493135691 0 7.1234140396 0.045914895833 0
          6.5134410858 0.025665426627 0 4.5236430168 -0.16899496317 0
          7.2840161324 -0.085473023355 0 0 0 0
          5.7117505074 0.33295074105 0 6.6295967102 0.11301328987 0
          7.1649031639 -0.1555223614 0 5.7809329033 0.26391071081 0
          5.698302269 -0.08216393739 0 3.0978896618 -0.0037826341577 0
          6.5650424957 -0.0830976367 0 2.1896882057 -0.045550823212 0
          6.1964993477 0.047877263278 0 3.5840547085 -0.12483486533 0
          5.5012936592 0.31818920374 0 6.94302845 0.27827581763 0
          7.0051980019 -0.061152793467 0 5.6028614044 0.22851257026 0
          6.297577858 -0.028152309358 0 5.7709040642 0.14449577034 0
          4.5116143227 -0.076087579131 0 7.275788784 0.15997007489 0
          6.6083202362 0.29179507494 0 0 0 0
          5.2084860802 0.36428675056 0 5.3849434853 -0.016638211906 0
          6.2588644028 0.10996007174 0 7.4886465073 0.0047509325668 0
          7.4027318954 -0.025331739336 0 2.994553566 0.090547062457 0
          6.8893933296 0.062318366021 0 5.159283638 0.28438296914 0
          5.643538475 0.12376760691 0 3.0422086716 -0.11360362917 0
          6.0781726837 0.039752498269 0 4.9435305595 0.34373307228 0
          6.3098387718 0.24392916262 0 4.1522307396 -0.070145346224 0
          7.2387199402 0.084209695458 0 5.0660567284 0.22697247565 0
          5.7069411278 0.14112894237 0 6.6281180382 0.40079641342 0
          6.6530408859 0.1271687448 0 5.0994997025 -0.022399986163 0
          6.9553980827 0.33392331004 0 5.1261320114 0.18112917244 0
          7.2798967361 0.16335371137 0 0 0 0
          4.6031560898 0.35659328103 0 2.4786586761 0.09426305443 0
          6.2885947227 0.35153144598 0 5.8442592621 0.06188595295 0
          5.8088421822 0.20740887523 0 2.7290723324 -0.1137054041 0
          7.0730810165 0.17035658658 0 4.3896503448 0.29975774884 0
          7.5473327637 0.012926618569 0 7.4736428261 0.033784016967 0
          3.6299741268 -0.056214228272 0 5.0431728363 0.18089006841 0
          6.4587163925 0.15820394456 0 4.683719635 -0.044709909707 0
          4.2884531021 0.27539396286 0 6.2315974236 0.37339031696 0
          5.8183231354 0.28160142899 0 6.4586577415 0.37577161193 0
          4.1312584877 0.27323421836 0 5.1356239319 0.2048740834 0
          4.2862234116 0.2136079967 0 7.3236484528 0.13152636588 0
          5.5856547356 0.038279823959 0 6.7681274414 0.25119549036 0
          6.9381389618 0.22015380859 0 2.4809012413 -0.019710259512 0
          4.2968502045 0.24979016185 0 0 0 0
          4.3039169312 0.2128816247 0 7.4812908173 -0.046383548528 0
          5.8076806068 0.32951948047 0 3.1429002285 -0.070261590183 0
          6.2468576431 0.13292138278 0 4.1785869598 0.21500968933 0
          7.0642347336 0.073784574866 0 5.1294484138 0.24869303405 0
          4.1744976044 -0.079321451485 0 7.1761450768 0.21030138433 0
          7.3932752609 0.0033019236289 0 5.2417182922 -0.016198404133 0
          6.7749567032 0.20167276263 0 4.2111005783 0.2158062458 0
          7.2656536102 -0.078456409276 0 2.4369237423 -0.02744627744 0
          5.9160203934 0.33915552497 0 3.9328932762 0.21637699008 0
          4.2922639847 0.20901554823 0 5.1630764008 0.28388428688 0
          6.1425805092 0.27995449305 0 6.0155534744 0.064708329737 0
          4.251595974 0.22940500081 0 3.846414566 0.1906555295 0
          7.2223758698 0.08349968493 0 6.5420970917 0.11466493458 0
          2.4819767475 -0.092740438879 0 7.0773820877 0.22868214548 0
          7.3362340927 -0.14584583044 0 0 0 0
          4.5611038208 0.033175505698 0 3.788038969 0.19246576726 0
          4.0979194641 0.10553859919 0 4.2945041656 0.2474065721 0
          6.5843334198 0.12487740815 0 6.8541502953 -0.066043362021 0
          4.1422476768 0.11427414417 0 5.2252855301 0.3035749197 0
          4.8321452141 -0.077864043415 0 3.5429091454 -0.12715567648 0
          5.7831940651 -0.018400503322 0 7.0870490074 0.14493331313 0
          3.7571630478 0.21313245595 0 7.2277503014 -0.096975721419 0
          5.6451687813 0.27555373311 0 2.3219158649 -0.054358355701 0
          7.0915465355 -0.2014926821 0 3.9289500713 0.10045862198 0
          7.0084009171 0.16832788289 0 4.1585865021 -0.0094069410115 0
          5.9173822403 0.17144794762 0 4.2273654938 0.27070116997 0
          3.8683347702 0.13361868262 0 6.3730173111 -0.0011897952063 0
          3.7106492519 0.23331645131 0 6.3269410133 0.018692145124 0
          7.060072422 -0.0015028897906 0 7.0223126411 0.13220225275 0
          7.1730246544 -0.2339489609 0 3.4899835587 0.064044594765 0
          0 0 0 2.4705681801 -0.13371764123 0
          3.7945504189 0.15013487637 0 6.6808872223 -0.1523900032 0
          3.1139242649 -0.10742209107 0 3.6797473431 0.23017664254 0
          3.2981221676 -0.0012502835598 0 5.8765950203 -0.096020922065 0
          4.7483921051 -0.13880765438 0 4.7948775291 0.26203212142 0
          6.9655547142 0.052504811436 0 3.2751946449 0.045889347792 0
          7.0817294121 -0.1660900414 0 4.1094999313 0.27286818624 0
          3.6997344494 0.15555267036 0 5.2976350784 0.18284273148 0
          6.9487872124 0.023410458118 0 2.2254261971 -0.060187865049 0
          5.6941261292 0.094621837139 0 6.9550628662 -0.25383618474 0
          3.1431615353 0.035388082266 0 6.9839735031 0.034516751766 0
          3.4408502579 -0.17049515247 0 3.6295921803 0.25245654583 0
          3.0355837345 0.04821845144 0 6.1033120155 -0.060954786837 0
          6.640586853 -0.072438292205 0 3.5622084141 0.16616153717 0
          6.9248232841 -0.051953881979 0 6.9465622902 0.017117751762 0
          7.0706968307 -0.24795849621 0 0 0 0
          0 0 0 0 0 0
          0 0 0 2.4134767056 -0.1661169827 0
          2.9268431664 0.044662103057 0 0 0 0
          6.4874815941 -0.17709603906 0 3.483934164 0.16013373435 0
          3.7742366791 0.231529966 0 5.6301178932 -0.17225554585 0
          3.5462520123 0.21545778215 0 4.2921943665 0.20937225223 0
          4.5495181084 -0.18337130547 0 0 0 0
          4.9777331352 0.11226281524 0 6.8768892288 -0.0014571398497 0
          6.9758257866 -0.088805906475 0 2.8052110672 0.046047903597 0
          7.0232133865 -0.14662471414 0 2.0649120808 -0.066351167858 0
          3.3755836487 -0.1812081933 0 5.4046282768 0.029650706798 0
          6.8164076805 -0.22683136165 0 0 0 0
          6.3926591873 -0.2059648484 0 6.9598789215 -0.20975491405 0
          0 0 0 5.8640818596 -0.086170993745 0
          2.5658273697 0.042689744383 0 0 0 0
          7.0011825562 -0.17494411767 0 6.9067769051 0.00099031603895 0
          3.2551035881 0.16450166702 0 6.9352340698 -0.063409425318 0
          2.3630747795 -0.170560956 0 3.5400354862 0.16537822783 0
          0 0 0 6.273373127 -0.14770922065 0
          4.7018384933 0.047514371574 0 3.8035035133 0.17952290177 0
          2.5270314217 0.054599970579 0 4.3660750389 -0.18881899118 0
          3.3175702095 0.18118864298 0 1.9192562103 -0.070657096803 0
          6.9302330017 0.04364637658 0 0 0 0
          7.0267372131 -0.040210898966 0 7.0188355446 -0.19503679872 0
          5.0834493637 0.013700271025 0 6.2813067436 -0.27040469646 0
          3.4324738979 -0.16841875017 0 6.6336126328 -0.14366182685 0
          5.4378247261 -0.22592893243 0 6.8565530777 -0.32206457853 0
          5.5877628326 -0.057764172554 0 0 0 0
          6.9566736221 0.12104774266 0 2.0398383141 0.044659771025 0
          0 0 0 6.8891129494 -0.043950442225 0
          2.3325095177 -0.14286702871 0 7.0608754158 -0.015150618739 0
          3.2624988556 0.084979496896 0 3.4143047333 0.14117962122 0
          6.027015686 -0.065635085106 0 7.052063942 -0.31079342961 0
          4.5233330727 -0.16071565449 0 4.1739954948 0.034427393228 0
          2.3088312149 0.044824559242 0 0 0 0
          6.1005005836 -0.25237128139 0 1.8102999926 -0.050617981702 0
          6.3915681839 -0.036157306284 0 7.0534324646 0.17283014953 0
          7.0058627129 0.11152909696 0 4.6831727028 0.02602395229 0
          7.212770462 -0.13561843336 0 6.6349949837 -0.32982340455 0
          3.4370181561 -0.12527218461 0 2.3720500469 0.040693312883 0