<?xml version="1.0"?>
<VTKFile type="PolyData" version="0.1" byte_order="LittleEndian" compressor="vtkZLibDataCompressor">
  <PolyData>
    <Piece NumberOfPoints="1041" NumberOfVerts="0" NumberOfLines="0" NumberOfStrips="0" NumberOfPolys="1940">
      <PointData>
        <DataArray type="Float32" Name="PRESSURE" format="ascii" RangeMin="-8.7292299271" RangeMax="0.45109903812">
          0 0.42395800352 0 0.26903545856 0.39832139015 0
          0.24256522954 0.10962241143 0.4361282289 0.22442059219 0.43625107408 0
          0.1393404752 0.052217844874 0.39625841379 0.18340703845 0.3119378984 0
          0.089409686625 0.026267711073 0.080907829106 0.12325634062 0.012055863626 0.012294460088
          0 -0.04547958076 -0.039755649865 -0.03320396319 -0.017364358529 -0.10716121644
          -0.013444024138 -0.12481547892 0 -0.21347954869 -0.21796661615 -0.15739673376
          -0.083372443914 -0.21951191127 -0.059685558081 -0.27130258083 -0.37074252963 -0.023683378473
          -0.43966972828 0 -0.31473055482 -0.39333295822 -0.27834841609 -0.39320150018
          -0.21151389182 -0.13157621026 -0.40809321404 -0.086297914386 -0.036936517805 -0.47888094187
          -0.31204169989 -0.58559328318 -0.22721914947 -0.45047131181 0 -0.57162380219
          -0.4477801919 -0.15369446576 -0.54800605774 -0.67944318056 -0.071312524378 -0.6592848897
          -0.029548650607 -0.31770846248 -0.77965736389 -0.44647139311 -0.15336099267 -0.23975495994
          -0.76071333885 0 -0.85568588972 -0.59895426035 -0.82405734062 -0.84162223339
          -0.086490824819 -0.74458009005 -0.91868621111 -0.041391361505 -0.2433617115 -0.46586540341
          -0.34889179468 -0.94196277857 -0.60349178314 -0.95193463564 0 -1.0315806866
          -0.16603924334 -0.79610943794 -1.0525029898 -1.0506336689 -1.0909593105 -0.97032439709
          -1.1077001095 -0.032488510013 -0.081469640136 -0.25519502163 -0.33267781138 -0.5963049531
          -0.4643637538 -1.2139344215 -1.1830800772 -0.76999425888 -1.1500637531 0
          -0.96393954754 -1.2956084013 -1.3017619848 -0.18060395122 -1.1659796238 -1.4227070808
          -0.055727042258 -0.61981195211 -0.77549296618 -0.4818277359 -0.34998196363 -1.3239635229
          -1.3644527197 -1.4189255238 -0.95596319437 -0.10218027234 -1.5330253839 0
          -1.4767971039 -1.1442570686 -0.27318194509 -1.6634321213 -1.4902360439 -0.052012525499
          -0.76402056217 -1.2913973331 -0.6203365922 -1.3373969793 -0.93585717678 -0.19664473832
          -0.52099323273 -1.1159797907 -1.5615757704 0 -1.6084901094 -1.5996477604
          -0.10735842586 -0.39098900557 -1.3117237091 -1.4169257879 -0.97804301977 -0.28532990813
          -0.82144349813 -1.8720970154 -0.041071273386 -1.4855422974 -0.20755527914 -1.1458948851
          -0.52407485247 -1.6550471783 -1.2846502066 -1.8561720848 0 -0.71563833952
          -1.4273228645 -0.079039044678 -1.6216294765 -1.6779264212 -1.5338315964 -2.3748040199
          -0.42068499327 -1.7960305214 -0.043605782092 -1.1079366207 -1.5134137869 -0.14831726253
          -1.5736359358 -0.27914467454 -1.7015881538 -1.3223631382 -0.99753606319 -1.9383978844
          0 -1.6525198221 -0.67593681812 -1.4369921684 -1.5177302361 -1.9321600199
          -1.6070615053 -0.05921331048 -0.39601093531 -1.8755435944 -1.6354404688 -0.023007333279
          -0.87704348564 -1.8766630888 -1.6105877161 -0.17625381052 -0.56506639719 -1.2500226498
          -1.6667661667 -1.8303793669 -1.3588008881 -0.32121396065 -1.4556649923 -2.0384936333
          0 -1.9134966135 -1.1376367807 -1.7766144276 -0.77911043167 -2.0708687305
          -1.6999323368 -0.025601258501 -1.589908123 -1.6341249943 -2.0294492245 -0.43607008457
          -1.7908416986 -2.0206127167 0.017719188705 -1.2898849249 -0.9821318388 -1.4187678099
          -0.088738918304 -0.63295024633 -0.2150772959 -1.7232663631 -1.9795641899 -1.4722559452
          -1.8298606873 -2.0266509056 0 -1.9024207592 -0.32790139318 -1.6661812067
          -1.2490135431 -2.146869421 -1.9671376944 0.091570474207 -1.5298466682 -0.86370694637
          -2.1916105747 -1.8391362429 -1.7569531202 -2.1862468719 -2.0020992756 -0.52129852772
          -1.6315277815 -2.0476939678 -1.417640686 -0.11162336916 0.011992651038 -1.084335804
          -1.530200243 -2.1950678825 -0.68734937906 -0.19342011213 -1.8654311895 -1.5447973013
          -2.2291753292 -2.0064418316 -1.7414246798 -2.1234583855 0 -0.34749764204
          0.07165889442 -0.89348977804 -2.2399446964 -1.6153485775 0.081702411175 -1.3873645067
          -2.4286379814 -2.429713726 -2.4093606472 -2.0013065338 -0.52037876844 -1.8694736958
          -1.514087677 -2.3510253429 -1.7159821987 -0.025562420487 -2.2394475937 0.18839231133
          -1.5867695808 -1.1415184736 -0.20174662769 -1.6183766127 -0.75650715828 -2.5170843601
          -2.0109431744 -2.2019853592 -1.8644226789 0 -2.4116292 -2.506567955
          -0.3944131434 -1.6974433661 0.26352459192 -0.89157682657 0.25880473852 -2.6964323521
          -2.7148401737 -1.5514502525 -2.1910564899 0.17602238059 -2.0316708088 -1.3093886375
          -0.5632545352 -1.5599098206 -2.584654808 -2.6009366512 -1.6441544294 -1.852243185
          -0.076672881842 -2.4997439384 -2.7220575809 -1.1448893547 -0.27428078651 -1.6921085119
          -2.7678141594 -0.8133354187 -2.2173159122 -2.4799323082 -2.0336332321 0
          -2.6059165001 0.21614247561 0.17049989104 -2.7296881676 -0.49552148581 0.28468963504
          -1.8318154812 -0.96198397875 -1.4484575987 -2.9745903015 -1.2864768505 -1.653627634
          -2.9424202442 0.10464687645 -1.6951776743 -2.4565799236 -2.7279806137 -0.62596380711
          -2.2522878647 -2.7884097099 -2.8948071003 -1.7217563391 -2.0410630703 -0.12427542359
          -3.0178458691 -2.9730885029 -0.33348426223 -1.8393948078 -0.91947346926 -2.7913355827
          -2.274930954 -2.4875743389 -1.2651724815 -2.7074916363 -2.9006698132 -1.4811066389
          -0.52522593737 -2.031170845 -1.7493269444 -1.7849104404 -1.0065885782 -3.0927939415
          -1.5720604658 -2.9637544155 -2.6972310543 -0.69105148315 -2.5899498463 -2.9286043644
          -1.8661129475 -3.2209568024 -3.0488321781 -2.3076715469 -3.1901216507 -3.2121109962
          -2.0421469212 -0.92817151546 -2.7601928711 -1.2274512053 -2.97260952 -2.5522079468
          -3.0282802582 -2.8881986141 -1.6830724478 -1.8583943844 -2.2726793289 -3.1681554317
          -3.1916456223 -1.9163572788 -1.5647788048 -0.90607011318 -3.2533650398 -3.1134257317
          -2.5208413601 -2.9558265209 -2.8579375744 -2.0701797009 -3.035472393 -3.2930886745
          -3.1397659779 -1.7469218969 -1.4371671677 -2.2773952484 -3.2265594006 -3.2399332523
          -3.0989692211 -3.0348713398 -3.1513364315 -1.8017377853 -3.0447788239 -1.8852900267
          -2.8189837933 -2.572000742 -1.9871040583 -1.6377233267 -3.128326416 -2.0928463936
          -3.2841095924 -3.2127225399 -3.2197980881 -3.1350705624 -3.214496851 -3.0889799595
          -2.2839221954 -3.0894706249 -3.2494006157 -1.7085124254 -1.9510495663 -2.4499547482
          -2.544585228 -3.2212088108 -3.1968472004 -3.2695243359 -2.0837931633 -3.2515883446
          -3.2780563831 -3.2730576992 -3.1570065022 -2.8326566219 -2.2353227139 -3.1201462746
          -2.0480029583 -3.1876347065 -3.3559355736 -3.2538645267 -3.081813097 -3.3505692482
          -3.2532992363 -3.1223833561 -3.1767251492 -1.9629042149 -2.0787591934 -2.5085940361
          -3.3925428391 -2.766669035 -1.9979536533 -3.3648951054 -3.2691805363 -3.1735398769
          -3.3293082714 -3.1823840141 -3.1311769485 -2.3147923946 -3.1590023041 -3.105704546
          -2.9972980022 -3.507704258 -2.1086463928 -3.2157745361 -3.2602772713 -3.4787025452
          -3.2772016525 -2.0532236099 -3.1557266712 -3.1154820919 -2.8324599266 -3.219727993
          -3.5128622055 -3.4067754745 -3.5163657665 -3.2991535664 -1.9075366259 -2.6042132378
          -3.1727275848 -3.1266043186 -3.1639056206 -3.6328377724 -3.1636941433 -2.4417252541
          -3.5387384892 -3.1067578793 -3.1572659016 -3.2379832268 -2.994540453 -3.3535337448
          -3.2811155319 -2.1890113354 -3.1530416012 -3.1793909073 -2.8238787651 -3.2306380272
          -3.6213271618 -3.6560115814 -3.1368207932 -3.5109071732 -2.6618614197 -3.2079544067
          -3.2011051178 -3.7398512363 -3.6745252609 -2.4696536064 -2.9399621487 -3.2293906212
          -3.1406133175 -3.1658227444 -3.1265156269 -3.1785430908 -3.1719696522 -3.3929495811
          -3.2476043701 -2.8989002705 -3.7659852505 -3.2846899033 -3.2102024555 -3.792910099
          -3.1164605618 -3.1851377487 -2.6733884811 -3.2945206165 -3.2331702709 -3.7148382664
          -3.8653185368 -3.0835206509 -3.2332773209 -3.6344745159 -3.3902857304 -3.265704155
          -3.0508313179 -3.1412012577 -3.1250598431 -3.4998929501 -3.2188925743 -3.2054286003
          -3.877086401 -2.9532115459 -3.4209170341 -3.8837509155 -3.1082863808 -3.2236092091
          -3.8467965126 -3.2312705517 -3.1579546928 -3.1202673912 -3.4067025185 -3.8495640755
          -3.9482505322 -3.3798148632 -3.7293329239 -3.0292778015 -3.6580562592 -3.1680867672
          -3.2890489101 -3.1864717007 -3.2987062931 -3.2816343307 -3.9192080498 -3.222548008
          -3.9137113094 -3.6008379459 -3.1842093468 -3.1884906292 -3.9803676605 -3.3024213314
          -3.2820925713 -3.0552523136 -3.8810250759 -3.97017169 -3.3448181152 -3.4477772713
          -3.8144857883 -3.2574145794 -3.2696881294 -3.7587058544 -3.3219816685 -3.4135360718
          -3.9208981991 -3.2966916561 -3.7313473225 -3.3546321392 -3.2197737694 -3.7820105553
          -3.9514451027 -3.5437653065 -4.0054755211 -3.3799240589 -3.9075202942 -3.4059081078
          -3.4403736591 -3.8677749634 -3.5528535843 -3.4728581905 -3.8364992142 -3.4522504807
          -3.4428329468 -3.3831224442 -3.7778673172 -3.4117412567 -3.6353974342 -3.2718527317
          -3.611284256 -3.6568796635 -3.5357782841 -3.5012376308 -3.7200620174 -3.7812604904
          -3.5702869892 -3.5732903481 -3.7769300938 -3.5418550968 -3.6386497021 -3.58451581
          -3.4898030758 -3.775914669 -3.6861474514 -3.5172245502 -3.4944169521 -3.7331411839
          -3.371309042 -3.6959474087 -3.6724896431 -3.6437246799 -3.4518253803 -3.5745472908
          -3.3136794567 -3.4581408501 -3.5529329777 -3.7744967937 -3.5868229866 -3.5453667641
          -3.7057938576 -3.597979784 -3.5135922432 -3.6316719055 -3.5993673801 -3.7999675274
          -3.786648035 -3.5832877159 -3.4917140007 -3.7834298611 -3.5704643726 -3.5278422832
          -3.8623707294 -3.1088228226 -3.5164885521 -3.1739525795 -2.9628305435 -3.8105518818
          -3.2468552589 -3.6054604053 -3.8417103291 -3.3212661743 -3.4617650509 -3.705121994
          -3.3734502792 -3.7447912693 -3.6045274734 -3.9059946537 -3.6885578632 -3.4267663956
          -2.8100135326 -3.8749496937 -3.3619701862 -3.4680433273 -3.7486083508 -3.3558108807
          -2.8409819603 -3.35429883 -3.940290451 -2.6942837238 -3.1472482681 -3.0151934624
          -3.85237813 -3.5292394161 -3.7936737537 -3.3157939911 -3.781172514 -2.8041777611
          -3.679325819 -3.115085125 -3.5769407749 -3.9057943821 -2.626919508 -3.2869689465
          -3.7983424664 -3.1978647709 -3.6031076908 -3.102134943 -3.3443090916 -3.1785242558
          -2.837416172 -2.5226094723 -3.8488695621 -2.4841086864 -3.8835244179 -3.7751369476
          -3.3820614815 -2.6036684513 -3.8555135727 -3.6055283546 -3.1293494701 -2.9215800762
          -2.4558548927 -3.3756585121 -3.7530295849 -3.1527881622 -2.3740313053 -3.0431945324
          -3.6055130959 -3.9005126953 -3.3826470375 -3.8243908882 -3.1711425781 -2.3461911678
          -2.9886856079 -2.5004210472 -2.2798333168 -3.6147477627 -3.7408764362 -3.1708071232
          -2.2622566223 -2.6140830517 -2.8371934891 -3.3406324387 -2.984503746 -3.1866297722
          -2.1993136406 -2.3418216705 -3.0381016731 -3.4861164093 -3.7790379524 -2.9243299961
          -3.2918539047 -3.1007535458 -2.983641386 -2.2693259716 -2.9113614559 -2.1989936829
          -3.7087728977 -3.2190406322 -2.1930730343 -2.9132962227 -2.3373105526 -2.916431427
          -3.0200722218 -2.6435463428 -2.3685863018 -2.8738698959 -2.815066576 -2.1903467178
          -3.6434841156 -2.2028284073 -3.1426212788 -2.8885443211 -2.7716674805 -2.7553067207
          -2.3841285706 -2.9146738052 -2.2996799946 -2.8058786392 -2.2571036816 -2.320281744
          -2.8524286747 -2.5536382198 -2.8892903328 -2.7630512714 -2.6240661144 -3.0423498154
          -2.5976417065 -2.5638833046 -2.4057006836 -2.8820083141 -2.7805581093 -2.704777956
          -2.4661607742 -2.9473173618 -2.6886098385 -2.6588695049 -2.9051003456 -2.4950096607
          -2.664814949 -2.3798587322 -2.7706954479 -2.7003931999 -2.8305492401 -2.7726819515
          -2.5413482189 -2.4442951679 -2.6079099178 -2.9815056324 -2.9529061317 -2.9378356934
          -2.2999975681 -2.5946547985 -3.0928835869 -3.1159861088 -3.2740001678 -3.0081794262
          -3.1101980209 -3.3475048542 -2.3839201927 -3.289788723 -3.3328442574 -2.4570727348
          -2.5344586372 -2.3597769737 -2.8145830631 -2.2539656162 -3.2908828259 -3.4851315022
          -2.2064497471 -3.7444913387 -3.3249938488 -2.6054730415 -3.2903807163 -2.2809333801
          -4.0918855667 -3.7860338688 -4.1157484055 -3.3006906509 -3.6048648357 -2.2743971348
          -2.3743438721 -2.4107551575 -2.524425745 -4.0056123734 -3.3152182102 -2.2807135582
          -3.8227238655 -4.048415184 -4.3683681488 -3.3405647278 -2.4395411015 -3.7127084732
          -4.7104496956 -4.6575989723 -3.6239597797 -2.4705457687 -2.4198803902 -4.6376185417
          -2.7585573196 -4.0972127914 -4.3758926392 -2.4167962074 -4.4791054726 -3.7547390461
          -3.534860611 -4.3905978203 -4.4547963142 -3.9885714054 -4.656188488 -3.5070035458
          -4.8351736069 -3.8912377357 -2.7652652264 -3.1242341995 -4.7769064903 -2.627695322
          -2.5122931004 -4.1672253609 -4.8714370728 -4.0897312164 -4.5075120926 -2.7459506989
          -4.6205306053 -4.7029976845 -4.9135684967 -4.3896431923 -4.3729667664 -4.6701259613
          -4.7000451088 -4.8043241501 -4.6520862579 -4.6238274574 -2.7069592476 -4.3026266098
          -4.6634726524 -2.9704458714 -3.2983779907 -4.4473490715 -5.0026459694 -4.7599596977
          -4.7266659737 -3.8553414345 -4.7404360771 -4.5637388229 -4.672041893 -4.9475793839
          -4.4981780052 -4.81077528 -4.3740105629 -4.8378872871 -3.1317362785 -4.3559122086
          -4.8187384605 -4.6810026169 -3.5514714718 -4.2744069099 -4.6273202896 -3.9172432423
          -4.7659554482 -5.0208015442 -4.6443853378 -4.7224822044 -4.9994678497 -4.7564668655
          -4.7175164223 -4.4426336288 -4.1604018211 -4.8569097519 -4.2526798248 -5.0524091721
          -3.6289227009 -4.6731028557 -4.6471619606 -4.5073394775 -4.0086140633 -4.6897516251
          -4.3694357872 -4.4504151344 -5.3945069313 -4.4946165085 -4.6928510666 -4.9798116684
          -4.894089222 -4.1431236267 -4.5814466476 -4.1446375847 -4.568072319 -4.1303052902
          -4.5258975029 -5.5307803154 -4.4589762688 -4.5922203064 -4.3984203339 -4.9901957512
          -4.6464676857 -4.6782641411 -4.6530828476 -4.7228574753 -5.0512151718 -5.9453468323
          -4.3039112091 -4.6171379089 -4.9858922958 -4.3729758263 -5.7367815971 -3.7502055168
          -4.4733142853 -6.1391386986 -4.478682518 -4.3643774986 -4.4030785561 -4.6571774483
          -4.7764983177 -4.9488072395 -4.9458227158 -4.6628084183 -4.9052248001 -4.2615318298
          -5.2289943695 -4.850748539 -5.1178717613 -6.660367012 -4.1566996574 -4.6267776489
          -6.9310936928 -4.9762916565 -6.1202278137 -3.5104954243 -4.7273731232 -2.0483062267
          -4.807902813 -4.5510396957 -5.083126545 -4.629386425 -4.4442634583 -6.4712896347
          -4.7580518723 -5.1393041611 -4.1876316071 -5.3369903564 -4.9003820419 -4.895072937
          -5.3286509514 -7.1665740013 -4.0980973244 -7.6727805138 -8.7292299271 -4.7630448341
          -4.7407603264 -5.0210165977 0.43469211459 -5.38230896 -1.184135437 -5.0649089813
          -7.3424324989 -4.8503479958 -4.3712882996 -4.8896684647 -7.5229964256 -5.506816864
          -5.3037204742 -3.7538640499 -5.0357108116 -6.4631567001 -5.2592253685 -4.3744659424
          -5.3754057884 -4.60191679 -5.0548424721 -5.5481610298 -5.4619750977 -1.845970273
          -5.7567620277 -7.5035157204 -3.5680069923 -7.3284473419 -5.922516346 -6.1831870079
          -6.1557908058 -1.1577048302 0.45109903812 -6.9006724358 -4.7450842857 -6.6569457054
          -8.670788765 -7.6670241356 -7.1619849205
        </DataArray>
        <DataArray type="Float32" Name="VELOCITY" NumberOfComponents="3" ComponentName0="X-VELOCITY" ComponentName1="Y-VELOCITY" ComponentName2="Z-VELOCITY" format="ascii" RangeMin="0" RangeMax="8.365406471">
          0 0 0 0 0 0
          3.576333046 0.0073941475712 0 4.862850666 0.11715280265 0
          3.4502167702 0.1402041018 0 5.4109315872 0.13755224645 0
          0 0 0 5.2046527863 -0.062479805201 0
          3.8450386524 0.058737941086 0 5.038646698 -0.024474324659 0
          0 0 0 5.2122850418 -0.07615800947 0
          4.9836492538 -0.14238883555 0 4.9883804321 -0.1812466383 0
          3.7893564701 0.00023278599838 0 4.9504613876 -0.062802247703 0
          0 0 0 5.0366244316 -0.19653201103 0
          4.6787781715 -0.072165690362 0 4.8241529465 -0.29097151756 0
          4.7406535149 -0.2799115181 0 3.6886045933 -0.027051188052 0
          4.9768519402 -0.29152843356 0 0 0 0
          5.1306505203 -0.27823013067 0 4.6173424721 -0.24943503737 0
          4.8530077934 -0.34669551253 0 4.5594291687 -0.13540560007 0
          5.1160359383 -0.34710606933 0 3.6740932465 -0.034404601902 0
          5.2524833679 -0.31871116161 0 4.7051544189 -0.3707870245 0
          5.3714385033 -0.27812871337 0 0 0 0
          4.5102472305 -0.34343242645 0 5.1123137474 -0.37955510616 0
          5.2581849098 -0.36289173365 0 4.4775810242 -0.26253023744 0
          5.3973050117 -0.3415941596 0 4.3957285881 -0.14812210202 0
          3.6027772427 -0.027870463207 0 5.495262146 -0.30269926786 0
          0 0 0 5.5476579666 -0.24956686795 0
          4.9103531837 -0.39208546281 0 4.4329776764 -0.35296741128 0
          5.2526926994 -0.37958177924 0 4.3778333664 -0.28737565875 0
          5.484331131 -0.35217383504 0 5.6056351662 -0.32476010919 0
          4.2627420425 -0.15990225971 0 5.6631569862 -0.28892886639 0
          5.669377327 -0.25103229284 0 3.4936823845 -0.010850283317 0
          5.6820435524 -0.32105180621 0 4.2582325935 -0.28448539972 0
          5.830956459 -0.27315333486 0 0 0 0
          5.6931576729 -0.19185845554 0 4.4020633698 -0.36239510775 0
          5.5424194336 -0.3600051403 0 5.882273674 -0.22469976544 0
          5.1282172203 -0.39894157648 0 4.0582346916 -0.16709206998 0
          5.8715105057 -0.19225221872 0 3.164481163 -0.029365636408 0
          5.836725235 -0.15466499329 0 6.0311493874 -0.22775383294 0
          5.0201907158 -0.38629242778 0 5.9488825798 -0.28589507937 0
          6.0294084549 -0.14426852763 0 6.0723032951 -0.16048492491 0
          0 0 0 5.7810049057 -0.089868508279 0
          4.15843153 -0.2600094974 0 5.833486557 -0.33294540644 0
          3.9442234039 -0.16809430718 0 4.3700203896 -0.36343967915 0
          5.9870243073 -0.098386771977 0 5.6100840569 -0.35603570938 0
          3.1189103127 -0.053836174309 0 5.8999304771 -0.034116599709 0
          6.1800322533 -0.083602771163 0 6.228328228 -0.20095470548 0
          6.2268223763 -0.11927469075 0 5.2949213982 -0.349090904 0
          6.2029018402 -0.2629942894 0 0 0 0
          5.8167767525 0.011497085914 0 4.0640587807 -0.264082551 0
          6.1265997887 -0.016430689022 0 6.0898551941 -0.31635379791 0
          3.8085606098 -0.17377845943 0 4.9571971893 -0.31877803802 0
          4.2021250725 -0.30053046346 0 5.8571538925 -0.32712087035 0
          2.9983038902 -0.051081702113 0 5.8994426727 0.075355231762 0
          6.0210189819 0.070843242109 0 6.2299113274 0.021195819601 0
          6.3147115707 -0.015985742211 0 6.4216008186 -0.15836836398 0
          6.3850269318 -0.067206680775 0 4.0403218269 -0.26751384139 0
          5.6105413437 -0.30209839344 0 6.4268741608 -0.23152351379 0
          0 0 0 5.79773283 0.12224764377 0
          6.3092813492 -0.26401275396 0 3.6921918392 -0.16731162369 0
          5.1102824211 -0.28189522028 0 6.137617588 0.12255965173 0
          6.162021637 -0.23574174941 0 2.8968596458 -0.078704118729 0
          5.8420658112 0.19189560413 0 6.5186572075 -0.027927283198 0
          6.5955677032 -0.12476434559 0 6.4263978004 0.045925617218 0
          6.2766032219 0.11187437922 0 4.3683972359 -0.23126223683 0
          5.9210128784 -0.19309577346 0 3.9768989086 -0.21487595141 0
          6.62104702 -0.1704121083 0 5.9230594635 0.22712089121 0
          0 0 0 5.7041153908 0.21867834032 0
          3.6362547874 -0.14354167879 0 6.5281019211 -0.1589064151 0
          6.1022558212 0.20116715133 0 3.0326001644 -0.050273936242 0
          5.5337395668 -0.16383256018 0 5.7225432396 0.28722763062 0
          6.6487011909 0.035349246114 0 6.4200034142 -0.098737075925 0
          6.5248594284 0.11401877552 0 4.2633414268 -0.23428799212 0
          6.7741775513 -0.040522962809 0 5.9175658226 0.27271953225 0
          6.3274855614 0.17720109224 0 6.8155722618 -0.06797939539 0
          0 0 0 5.5722794533 0.29707929492 0
          5.0449476242 -0.18300819397 0 3.7645068169 -0.16289260983 0
          5.6984119415 0.33840608597 0 6.122718811 0.24353429675 0
          6.7370581627 -0.029273958877 0 6.4209794998 -0.01213803608 0
          6.7720389366 0.071743495762 0 5.8926472664 0.30361297727 0
          6.598315239 0.1739051044 0 2.8511152267 -0.081510201097 0
          5.5366888046 0.35568505526 0 5.9752669334 -0.048828911036 0
          5.6441855431 0.36502107978 0 6.9020900726 0.018553365022 0
          6.1296076775 0.27883204818 0 4.4772186279 -0.24511498213 0
          6.9136328697 0.00025061462657 0 0 0 0
          5.426530838 0.32769650221 0 6.3183875084 0.27675241232 0
          6.77815485 0.061354700476 0 5.4628767967 0.39175638556 0
          5.7671647072 -0.087842680514 0 3.6034259796 -0.034493878484 0
          6.4789571762 0.037680730224 0 2.641294241 -0.06866761297 0
          5.7965836525 0.34303960204 0 3.7821667194 -0.23695905507 0
          5.3265180588 0.3693073988 0 6.7342629433 0.15000987053 0
          6.7070951462 0.093591094017 0 5.3618426323 0.40902388096 0
          6.2981104851 -0.030978389084 0 5.4676761627 0.39808940887 0
          4.5262770653 -0.21398922801 0 6.918569088 0.015962295234 0
          6.3350167274 0.30759432912 0 0 0 0
          5.2025151253 0.33269515634 0 5.439139843 -0.12970651686 0
          5.8692970276 0.35436183214 0 6.9280905724 0.0085435789078 0
          6.8025202751 0.080586574972 0 3.5492653847 0.072688676417 0
          6.676712513 0.025939591229 0 5.1230983734 0.39332008362 0
          5.3646864891 0.39203721285 0 3.2917289734 -0.22114165127 0
          6.1039004326 -0.11315912008 0 5.0567011833 0.35380968451 0
          5.9470610619 0.37268441916 0 4.1986637115 -0.23110681772 0
          6.7615981102 0.050043288618 0 5.0264444351 0.4167444706 0
          5.3952088356 0.40143609047 0 6.3809690475 0.22611768544 0
          6.5350732803 -0.081951782107 0 5.109787941 -0.22500325739 0
          6.6809768677 0.055578634143 0 5.0310006142 0.41102188826 0
          6.8286261559 -0.052613224834 0 0 0 0
          5.0251970291 0.26994550228 0 2.9237904549 0.096900299191 0
          5.9659533501 0.32760134339 0 5.835875988 -0.20119278133 0
          5.4602127075 0.3981718719 0 3.0769152641 -0.19009062648 0
          6.7493848801 -0.06356933713 0 4.8073267937 0.33938631415 0
          6.856218338 -0.035291176289 0 6.7713904381 0.039116248488 0
          3.7010593414 -0.19683240354 0 4.948571682 0.40574777126 0
          6.3555188179 -0.19943633676 0 4.6503982544 -0.25241553783 0
          4.9282259941 0.24148759246 0 5.9832806587 0.24705776572 0
          5.4779968262 0.37448316813 0 6.2869386673 0.11280290037 0
          4.6385440826 0.34582966566 0 4.9642524719 0.40599164367 0
          4.588973999 0.35732612014 0 6.7882781029 -0.027058592066 0
          5.5170927048 -0.25666233897 0 6.5626649857 -0.031870763749 0
          6.6914558411 -0.19707286358 0 2.8376498222 -0.061669785529 0
          5.129550457 0.1455039382 0 0 0 0
          4.4979863167 0.38506263494 0 6.7834911346 -0.0011704653734 0
          5.5317115784 0.31946885586 0 3.2681386471 -0.16376145184 0
          6.1005120277 -0.27743425965 0 4.9364795685 0.20086307824 0
          6.7015314102 -0.089304417372 0 4.9341573715 0.39182677865 0
          4.1109132767 -0.24874037504 0 6.8298082352 -0.15066383779 0
          6.7716884613 0.0090308748186 0 5.1104102135 -0.27035191655 0
          6.5436067581 -0.3033464551 0 4.3726229668 0.37200167775 0
          6.7467465401 -0.043557282537 0 2.8365607262 -0.039771813899 0
          5.7677998543 0.19253346324 0 4.6515688896 0.27836424112 0
          5.1885848045 0.13520343602 0 4.9638972282 0.35899934173 0
          6.0969257355 0.067754209042 0 5.8041114807 -0.31219792366 0
          4.3375329971 0.36475348473 0 4.5165777206 0.26919427514 0
          6.8539395332 -0.06130579114 0 6.47706604 -0.042567417026 0
          2.7713704109 -0.1417953968 0 6.8306102753 -0.27506741881 0
          6.7784142494 0.04920354113 0 0 0 0
          5.38169384 -0.04203048721 0 4.4037165642 0.27708339691 0
          5.0242133141 0.10455486178 0 4.3020119667 0.34908878803 0
          6.3079986572 -0.35563033819 0 6.6492376328 -0.020779317245 0
          5.0369896889 0.091432839632 0 5.0575475693 0.29382717609 0
          4.649620533 -0.25242432952 0 3.4798312187 -0.22598162293 0
          5.5092949867 -0.30721157789 0 6.9576282501 -0.18137514591 0
          4.2657856941 0.29659771919 0 6.8531150818 0.073416791856 0
          5.5934925079 0.15719677508 0 2.6919808388 -0.05535338074 0
          6.7434720993 0.081552490592 0 4.772081852 0.10884041339 0
          6.7626237869 -0.35059019923 0 4.8369059563 -0.033672984689 0
          5.957423687 0.068868942559 0 4.2294216156 0.33000412583 0
          4.6661782265 0.15715067089 0 6.3836698532 0.021132331342 0
          4.1533956528 0.29651239514 0 5.9873175621 -0.34230536222 0
          7.0202684402 0.0024348057341 0 6.9969768524 -0.27612143755 0
          6.8227176666 0.1787045449 0 3.9717473984 0.056838739663 0
          0 0 0 2.6920874119 -0.15207079053 0
          4.5428156853 0.16875098646 0 6.5626730919 0.10665120929 0
          3.5661585331 -0.12125930935 0 4.0675582886 0.2716780901 0
          3.8000068665 -0.014802329242 0 5.5037436485 -0.28607884049 0
          4.5159540176 -0.23344939947 0 4.735660553 0.24048909545 0
          7.1805787086 -0.10728823394 0 3.7907402515 0.049398988485 0
          6.9719552994 0.19537584484 0 4.1406164169 0.28162589669 0
          4.4049119949 0.17107799649 0 5.3116788864 0.14974965155 0
          6.6623997688 -0.35226714611 0 2.5891320705 -0.055558271706 0
          5.7682027817 0.11775775254 0 6.7022576332 0.23068094254 0
          3.6509180069 0.034548707306 0 6.9990348816 -0.30801334977 0
          3.3383872509 -0.20190788805 0 3.977284193 0.27770033479 0
          3.5389778614 0.046260420233 0 6.1451506615 0.12395694107 0
          6.2670750618 -0.31111672521 0 4.2314891815 0.17396731675 0
          7.2121186256 0.11432983726 0 7.26440382 -0.18729948997 0
          6.8371248245 0.31608754396 0 0 0 0
          0 0 0 0 0 0
          0 0 0 2.6172087193 -0.15944950283 0
          3.4290392399 0.04380274564 0 0 0 0
          6.3789858818 0.22921769321 0 4.1310520172 0.16163386405 0
          3.9165258408 0.2434194684 0 5.2576680183 -0.20696292818 0
          3.9209098816 0.21197833121 0 4.3200163841 0.23495157063 0
          4.3293614388 -0.1914665103 0 0 0 0
          5.0228915215 0.16779729724 0 7.4265232086 -0.008614320308 0
          7.1754698753 -0.22463327646 0 3.3035979271 0.043993797153 0
          7.044667244 0.30903044343 0 2.4320938587 -0.054556392133 0
          3.2803351879 -0.1691442281 0 5.4708256721 0.17742690444 0
          6.5598015785 0.33875966072 0 0 0 0
          5.9570498466 -0.22741630673 0 6.8439822197 -0.2123721689 0
          0 0 0 5.8720221519 0.21683630347 0
          3.0439219475 0.037097301334 0 0 0 0
          6.7404532433 0.38640660048 0 7.343960762 0.19901871681 0
          3.8959457874 0.17337672412 0 7.5320563316 -0.065279528499 0
          2.5708715916 -0.1529045403 0 3.8159329891 0.19285267591 0
          0 0 0 6.1244268417 0.31482082605 0
          4.7546133995 0.1753962785 0 3.9016141891 0.27105137706 0
          3.0198426247 0.05925527215 0 4.1833457947 -0.14319826663 0
          3.9264791012 0.20047751069 0 2.2984259129 -0.065612792969 0
          7.5655441284 0.085260942578 0 0 0 0
          6.9607181549 0.3482504189 0 7.4592251778 -0.069284513593 0
          5.1009531021 0.24458137155 0 5.9137015343 -0.11045625806 0
          3.3351736069 -0.14623990655 0 6.3356223106 0.38884499669 0
          5.1224398613 -0.11374756694 0 6.7377257347 -0.043473843485 0
          5.5237812996 0.27678221464 0 0 0 0
          7.3165221214 0.1994433254 0 2.4608390331 0.050264663994 0
          0 0 0 6.5797429085 0.38700154424 0
          2.54190135 -0.15317541361 0 7.6806311607 0.0097116464749 0
          3.8246517181 0.11664818972 0 3.6008000374 0.2637232244 0
          5.8068223 0.34433284402 0 7.3086862564 0.021987142041 0
          4.3635511398 -0.1151003316 0 4.247736454 0.21036499739 0
          2.8046774864 0.039050284773 0 0 0 0
          5.8662471771 0.0011963255238 0 2.1847531796 -0.061241690069 0
          6.0366230011 0.36884307861 0 7.5483798981 0.060474682599 0
          6.8250923157 0.29985019565 0 4.6519298553 0.27181583643 0
          7.6341400146 0.026713786647 0 6.5174865723 0.075948640704 0
          3.3739218712 -0.15168122947 0 2.8919124603 0.044735345989 0
          0 0 0 5.1008372307 0.28632763028 0