<?xml version="1.0"?>
<VTKFile type="PolyData" version="0.1" byte_order="LittleEndian" compressor="vtkZLibDataCompressor">
  <PolyData>
    <Piece NumberOfPoints="1041" NumberOfVerts="0" NumberOfLines="0" NumberOfStrips="0" NumberOfPolys="1940">
      <PointData>
        <DataArray type="Float32" Name="PRESSURE" format="ascii" RangeMin="-6.6048574448" RangeMax="10.732778549">
          0 0.16184723377 0 0.028980590403 0.092176444829 0
          -0.013818356209 0.0036542913876 0.0042231595144 -0.040732987225 -0.060733981431 0
          -0.11168361455 -0.057444278151 -0.15489809215 -0.18943998218 -0.18782567978 0
          -0.29780834913 -0.18228894472 -0.25927656889 -0.3169747591 -0.084018781781 -0.36367854476
          0 -0.38608637452 -0.29777872562 -0.42591330409 -0.22146615386 -0.46617630124
          -0.099519513547 -0.45863220096 0 -0.49385988712 -0.52604156733 -0.46257004142
          -0.39316543937 -0.54705488682 -0.26858720183 -0.53788626194 -0.58297085762 -0.13455745578
          -0.60677009821 0 -0.61080920696 -0.61986941099 -0.59414201975 -0.6108803153
          -0.54907745123 -0.44286027551 -0.59324550629 -0.31268453598 -0.14463871717 -0.63390034437
          -0.62204164267 -0.65997463465 -0.54942113161 -0.6083843112 0 -0.63761687279
          -0.6638532877 -0.43749949336 -0.66226822138 -0.6590103507 -0.23905923963 -0.67678660154
          -0.1209179908 -0.60821145773 -0.6787905097 -0.64687466621 -0.42599564791 -0.53665727377
          -0.68833088875 0 -0.69682359695 -0.64443331957 -0.69809234142 -0.66532838345
          -0.26443830132 -0.63757580519 -0.74237453938 -0.15081878006 -0.50300937891 -0.6212465167
          -0.58796137571 -0.63424158096 -0.62859576941 -0.74054515362 0 -0.7366861701
          -0.40178364515 -0.62830096483 -0.75229918957 -0.67420268059 -0.69794285297 -0.60622149706
          -0.79764264822 -0.11465348303 -0.24671596289 -0.5083758235 -0.53875243664 -0.60475963354
          -0.59595161676 -0.77655661106 -0.64335078001 -0.6061488986 -0.79440808296 0
          -0.59045290947 -0.81547707319 -0.65317797661 -0.46235471964 -0.59141200781 -0.89793604612
          -0.18302969635 -0.61011838913 -0.59738200903 -0.59609913826 -0.61964386702 -0.74696952105
          -0.58420175314 -0.83258795738 -0.58876413107 -0.330311656 -0.90589922667 0
          -0.87675493956 -0.55699521303 -0.59094768763 -0.96356379986 -0.70316135883 -0.17147931457
          -0.62240457535 -0.60661679506 -0.62787562609 -0.82361590862 -0.60921019316 -0.54205143452
          -0.66980701685 -0.58830225468 -0.90773451328 0 -0.78535270691 -0.91821634769
          -0.3685580492 -0.73106127977 -0.56182843447 -0.6388540864 -0.60284757614 -0.66881114244
          -0.63554537296 -1.0395405293 -0.15887439251 -0.74011266232 -0.584869802 -0.61127251387
          -0.74125140905 -0.94362193346 -0.63939070702 -1.014549613 0 -0.67602312565
          -0.61407756805 -0.35699391365 -0.88061612844 -0.9234457612 -0.78385877609 -1.1943639517
          -0.76045787334 -1.0122007132 -0.14180336893 -0.6148186326 -0.76212728024 -0.50579732656
          -0.86806064844 -0.68385976553 -0.97793680429 -0.63470923901 -0.61914849281 -0.98957312107
          0 -0.96650117636 -0.73472541571 -0.62175989151 -0.73836910725 -0.94576203823
          -0.85957115889 -0.3650393784 -0.76203763485 -0.98595547676 -0.96969729662 -0.1332693994
          -0.68054056168 -1.0073763132 -0.84314352274 -0.5848466754 -0.76288992167 -0.58011859655
          -0.98304122686 -1.0164819956 -0.5936294198 -0.69738870859 -0.63196986914 -0.95058721304
          0 -0.87179279327 -0.62322938442 -1.0304980278 -0.74927300215 -0.96163225174
          -0.97892934084 -0.27117663622 -0.66232895851 -0.76640290022 -0.98988068104 -0.76432955265
          -1.0643687248 -0.99443107843 -0.099149525166 -0.55874699354 -0.70082885027 -0.58628159761
          -0.40316429734 -0.77658683062 -0.59164202213 -0.89606153965 -1.0379539728 -0.61612153053
          -1.0777997971 -0.82188773155 0 -0.75129461288 -0.67824804783 -0.80366712809
          -0.64766651392 -0.88830459118 -1.0635983944 -0.22348360717 -0.75161767006 -0.76378393173
          -0.91227537394 -1.0178393126 -0.87244784832 -0.96743535995 -1.1124305725 -0.7524215579
          -0.80682462454 -0.73255336285 -0.58374631405 -0.48634371161 -0.071334257722 -0.7276712656
          -0.62624287605 -1.0038610697 -0.76939684153 -0.5889043808 -0.96219956875 -0.72407484055
          -0.77426600456 -1.0610336065 -0.91088873148 -0.70405524969 0 -0.65889400244
          -0.30407890677 -0.76297450066 -1.0427368879 -0.8477615118 -0.15403524041 -0.67707198858
          -0.86581933498 -0.78878813982 -0.91825169325 -1.0228015184 -0.72583466768 -0.96136689186
          -0.64810073376 -0.73838871717 -0.96553581953 -0.43057915568 -1.030074954 -0.017456665635
          -0.73127698898 -0.75456655025 -0.55815845728 -0.83398795128 -0.76538193226 -0.96545934677
          -0.96453279257 -1.0148675442 -1.0244902372 0 -0.71386951208 -0.69948971272
          -0.65758949518 -0.97172546387 -0.00045719472109 -0.76842767 -0.12982484698 -0.80940556526
          -0.73746848106 -0.73737156391 -0.95069420338 -0.31511726975 -0.99960190058 -0.73469930887
          -0.72591644526 -0.73475009203 -0.90684694052 -0.73072946072 -0.83123278618 -1.0669426918
          -0.47937375307 -0.99021214247 -0.67940175533 -0.76208853722 -0.60549730062 -0.93531399965
          -0.85493785143 -0.78198009729 -0.9109609127 -0.89741367102 -1.0751764774 0
          -0.6986399889 0.054930377752 -0.07616365701 -0.67661356926 -0.70735901594 -0.17607596517
          -1.0479792356 -0.77954190969 -0.77106267214 -0.67485147715 -0.77095198631 -0.81779462099
          -0.65412271023 -0.34586745501 -0.84611403942 -0.84219115973 -0.85138642788 -0.74838459492
          -0.97974294424 -0.72750496864 -0.66500735283 -0.90152484179 -1.0784125328 -0.49437391758
          -0.69895273447 -0.76462197304 -0.62182551622 -0.99080240726 -0.8122330904 -0.712864995
          -1.0292421579 -0.87002390623 -0.81558662653 -0.77201658487 -0.68885874748 -0.80751812458
          -0.70618009567 -1.0478670597 -0.91005474329 -0.92949175835 -0.80169141293 -0.66612923145
          -0.86569601297 -0.76977837086 -0.77759921551 -0.74477475882 -0.87341582775 -0.80477815866
          -0.95057839155 -0.61553531885 -0.7066873312 -0.99796944857 -0.63611698151 -0.71817189455
          -0.97144114971 -0.81488603354 -0.80011618137 -0.81442499161 -0.78313106298 -0.95288962126
          -0.75221461058 -0.76884937286 -0.88023400307 -0.94717055559 -0.9592577219 -0.74531072378
          -0.7070903182 -0.94053649902 -0.88558471203 -0.73252183199 -0.65450179577 -0.85480296612
          -0.88895338774 -0.76952689886 -0.78687828779 -0.91740256548 -0.77577120066 -0.69648486376
          -0.78873866796 -0.94440507889 -0.86384105682 -0.88019865751 -0.72388601303 -0.75520330667
          -0.87475657463 -0.72103327513 -0.84978652 -0.87678533792 -0.78547054529 -0.89425361156
          -0.77076470852 -0.82045394182 -1.0170315504 -0.89405423403 -0.78069025278 -0.90093487501
          -0.77330869436 -0.82347637415 -0.93677181005 -0.73169791698 -0.91484767199 -0.69407111406
          -0.80947214365 -0.80704551935 -0.77311098576 -0.92191684246 -0.83955854177 -1.1545553207
          -0.75445228815 -0.96176439524 -0.83097440004 -0.90477001667 -0.84073090553 -0.67930555344
          -0.94961792231 -0.98811686039 -0.77913308144 -0.65431624651 -0.76689726114 -0.86951249838
          -1.0139485598 -0.92338359356 -1.06480515 -0.72041499615 -0.6021835804 -1.0595589876
          -0.59892350435 -0.87341529131 -0.93295603991 -0.75358694792 -0.69671434164 -0.65573680401
          -1.106040597 -0.61632394791 -0.89470899105 -1.1069047451 -1.1025782824 -0.82876783609
          -0.64939826727 -1.1029567719 -0.99815422297 -0.64562660456 -1.1437116861 -0.98092389107
          -0.58029055595 -1.2412207127 -0.84625244141 -0.56183755398 -0.75661349297 -1.2492115498
          -0.6077709794 -0.59532809258 -1.1563785076 -0.96304392815 -0.59421986341 -1.3184697628
          -1.279165864 -1.2987214327 -1.2958657742 -0.67768716812 -0.59606462717 -0.58713948727
          -1.3588725328 -1.1839603186 -0.94769507647 -1.3940969706 -1.387655735 -0.62498831749
          -1.431833744 -1.140904665 -0.61791604757 -0.63938736916 -0.60163968801 -1.528722167
          -0.67090111971 -0.58455735445 -1.3909397125 -0.90665966272 -0.60117077827 -1.5665831566
          -1.428254962 -1.4834145308 -1.1505579948 -1.5853737593 -0.62638378143 -1.6265246868
          -1.304246664 -1.5408327579 -1.5875513554 -0.5895164609 -0.62933188677 -1.6393090487
          -1.1804218292 -0.93924003839 -0.68831878901 -0.73546373844 -1.3231247663 -1.7526519299
          -0.79236978292 -0.68217837811 -1.5727844238 -1.8118048906 -1.5984838009 -1.6612842083
          -1.1786623001 -1.3899394274 -0.59649419785 -1.8242015839 -0.93060010672 -1.7506523132
          -1.6743495464 -0.7276262641 -1.5305535793 -1.8688867092 -1.6537104845 -0.87948083878
          -0.74790817499 -1.4439333677 -1.1704491377 -1.9343956709 -1.5900162458 -0.83720362186
          -1.6945127249 -0.70299917459 -1.9527128935 -1.7446606159 -1.4362225533 -1.6606872082
          -1.7921757698 -1.1473548412 -0.83061027527 -0.80416238308 -1.7795269489 -1.9287452698
          -1.7690888643 -1.6121912003 -1.9555323124 -0.75365447998 -1.9477692842 -1.6974102259
          -1.6919691563 -1.3910156488 -1.7501544952 -1.0794297457 -1.7525902987 -0.95960432291
          -1.7790272236 -1.820092082 -1.6513463259 -0.90784043074 -1.8615480661 -1.3237440586
          -1.8655591011 -0.8079636097 -1.880048275 -1.7848613262 -1.7070921659 -1.7121760845
          -1.8630343676 -1.8484053612 -1.552026391 -1.7942863703 -1.140499711 -1.8724296093
          -1.7542101145 -1.0758872032 -1.6824829578 -1.6557847261 -0.9563421607 -1.6871510744
          -1.7467945814 -1.621358037 -1.7877027988 -1.3981833458 -1.7309570313 -1.8118751049
          -1.974126339 -1.6771134138 -1.7301803827 -1.5328376293 -1.5931167603 -1.9450451136
          -1.684589982 -1.2183411121 -1.5231493711 -1.3257142305 -1.629709363 -1.0832234621
          -1.8963345289 -1.4866218567 -1.5539762974 -1.5037277937 -1.5913227797 -1.5445648432
          -1.5940868855 -1.3957369328 -1.4629371166 -1.6133522987 -1.9662393332 -1.8836560249
          -1.4732111692 -1.3872346878 -1.6995266676 -1.3885647058 -1.4100462198 -1.3246738911
          -1.2708209753 -1.9596998692 -1.3436650038 -1.7893044949 -1.5310745239 -1.4034563303
          -1.4642146826 -1.4830646515 -1.4337323904 -1.7985138893 -1.2922059298 -1.2931649685
          -1.4606131315 -1.213278532 -1.2929540873 -1.6664545536 -1.5495100021 -1.8686516285
          -1.908549428 -1.1381765604 -1.4331572056 -1.5379538536 -1.1893362999 -1.2693721056
          -1.8838495016 -1.3451704979 -1.2120672464 -1.3495560884 -1.3105182648 -1.8043231964
          -1.2190264463 -1.3065327406 -1.5945984125 -1.1126446724 -1.2189540863 -1.661493659
          -1.0487879515 -1.7317934036 -1.5712139606 -1.8473106623 -1.3334977627 -1.2214188576
          -1.2648880482 -1.6701843739 -1.0565649271 -1.2359480858 -1.3366142511 -1.1101015806
          -1.2632155418 -1.1693769693 -1.7215408087 -1.2248854637 -1.0541638136 -1.1296136379
          -1.7673393488 -1.2303818464 -1.7439469099 -1.1939281225 -1.379981041 -1.2124054432
          -1.6895154715 -1.0431373119 -1.1868290901 -1.7368381023 -1.2522230148 -1.1867786646
          -1.4655104876 -1.1096973419 -1.1633782387 -1.0968062878 -1.1927962303 -1.1687668562
          -1.0797737837 -1.2136025429 -1.5841891766 -1.2140320539 -1.7456425428 -1.7282998562
          -1.1568259001 -1.1876295805 -1.7113126516 -1.2149175406 -1.1584508419 -1.0791711807
          -1.2336025238 -1.0946313143 -1.6097706556 -1.1336917877 -1.2316685915 -1.0838495493
          -1.3441838026 -1.7307184935 -1.0800323486 -1.7161642313 -1.1573075056 -1.1810407639
          -1.1170456409 -1.2166341543 -1.2009500265 -1.4792762995 -1.6578367949 -1.1050812006
          -1.2700492144 -1.1924926043 -1.1909643412 -1.1643152237 -1.1301496029 -1.0933357477
          -1.2496730089 -1.1971428394 -1.1136703491 -1.5172028542 -1.6809085608 -1.1298830509
          -1.2887860537 -1.1279838085 -1.1353238821 -1.1317716837 -1.0992251635 -1.1671860218
          -1.6395368576 -1.4139437675 -1.241384387 -1.1588050127 -1.2973897457 -1.147618413
          -1.2038689852 -1.2680256367 -1.1240409613 -1.2041347027 -1.2268395424 -1.20461905
          -1.6197515726 -1.2641302347 -1.4461015463 -1.1505022049 -1.2329077721 -1.2134943008
          -1.0479223728 -1.1517522335 -1.0719054937 -1.304049015 -1.1692721844 -1.2405846119
          -1.2072370052 -1.2144424915 -1.359208703 -1.2287615538 -1.2739018202 -1.4258123636
          -0.99863630533 -1.3006563187 -1.0650184155 -1.2164247036 -1.3413124084 -1.293776989
          -1.1670495272 -1.1403068304 -0.91833853722 -0.92046439648 -1.2169151306 -1.3108716011
          -1.1184830666 -1.3329576254 -1.2793089151 -1.0378451347 -1.1389741898 -1.3408619165
          -1.3220252991 -1.3332843781 -1.3166532516 -1.146464467 -0.84751552343 -0.89420366287
          -1.3269740343 -1.2638766766 -1.1234135628 -1.0977294445 -0.92609196901 -1.1932349205
          -0.74144357443 -0.90803694725 -1.2585978508 -0.73500204086 -1.015799284 -1.2910392284
          -1.291557312 -1.2844455242 -1.2573125362 -1.2837471962 -1.0420464277 -0.64606827497
          -1.250931859 -0.65613389015 -0.99497753382 -1.2009232044 -0.98688399792 -1.2274060249
          -0.74865329266 -0.54755431414 -0.7913543582 -0.99066233635 -0.57051390409 -1.2026809454
          -1.2397065163 -1.2325509787 -1.1441317797 -0.90463012457 -1.0423798561 -1.1510721445
          -0.89572644234 -0.44693294168 -0.39101314545 -1.0417245626 -1.1193567514 -0.8303450942
          -0.65924841166 -0.3747138083 -0.82633858919 -1.1299879551 -1.1777424812 -0.74109536409
          -1.0331792831 -0.40139567852 -0.31846809387 -1.068975091 -0.78111594915 -0.85098075867
          -0.93611162901 -0.69307976961 -0.29693955183 -0.87428444624 -0.12995517254 -0.8983348608
          -0.29296264052 -0.69925391674 -0.95779001713 -0.9094209075 -0.49341118336 -0.99784547091
          -1.0584324598 -0.8564619422 -0.59069007635 -0.69163125753 -0.3068344295 -0.92019104958
          -0.20656597614 -0.087441019714 -0.60175293684 -0.71416342258 -0.78183627129 -0.1055105105
          -0.3531345427 -0.52937209606 -0.72059440613 -0.17983773351 -0.91536766291 -0.7405628562
          -0.37533470988 -0.83148270845 -0.76060694456 -0.52422076464 -0.49525281787 -0.47588071227
          -0.66061621904 -0.64893466234 -0.5639102459 -0.35328951478 -0.50816869736 -0.55169951916
          -0.46247521043 -0.4847163558 -0.33671322465 -0.76982331276 -0.74935048819 -0.2268371582
          -0.54696238041 -0.42191204429 -0.60546833277 -0.39958748221 -0.42690891027 -0.47464025021
          -0.37720566988 -0.96166288853 -0.3206961751 -1.0941431522 -0.37763765454 -0.23090073466
          -0.25696414709 -1.3793104887 -1.2604175806 -0.46495577693 -1.0205508471 -1.4502189159
          -0.52407342196 -0.15193073452 -0.31139817834 -0.71369862556 -0.41750949621 -0.28818157315
          -0.29045066237 -0.46906623244 -1.6121102571 -0.042046289891 -0.45499101281 -1.9026283026
          -0.23414465785 -2.0126144886 -0.10378178209 -2.0466647148 -0.38323926926 -0.38245224953
          -1.7223420143 -1.9068217278 -0.29902383685 -0.16204684973 -0.21637611091 -0.093590982258
          -0.95365470648 -0.16933614016 -0.33459186554 -0.80493235588 -0.39617022872 -1.9452317953
          -0.35035786033 -0.50131422281 0.26584401727 -2.0702109337 -1.981965065 -2.1773355007
          -0.67042332888 -1.9242495298 -0.30581194162 -2.3215646744 -0.56550008059 -0.34114187956
          -2.2569432259 0.39814385772 -0.35558432341 -0.51932805777 -1.6362297535 -1.062972784
          -1.2766834497 -0.6857022047 0.27708861232 -1.9084539413 -1.4837194681 -1.2423299551
          -1.8200649023 1.2759714127 -1.8069827557 -1.8198231459 -0.48641055822 -1.7167359591
          -0.73995572329 -1.6921941042 0.30939760804 -1.7861573696 -1.4792901278 -3.5362992287
          -1.1329782009 -1.1448149681 -1.972432375 -4.1408863068 -0.50980550051 -1.6487377882
          3.6242444515 -1.8638632298 -2.0569460392 -1.8192725182 -1.7186644077 -1.6529852152
          -2.3002638817 -1.0243726969 -1.5268855095 4.1222610474 -1.6399267912 -1.4317589998
          -3.5009508133 -0.43479111791 -2.3522446156 -1.9415707588 -6.6048574448 -5.524828434
          -4.1211190224 -2.1731421947 4.8026714325 -3.5117785931 10.732778549 -2.0429344177
          -1.5925472975 -1.7717273235 4.8151040077 -1.8775898218 -5.4453320503 -1.6787985563
          -1.9671216011 -6.5753483772 -1.8423515558 -3.4860541821 -1.9162875414 -1.9090678692
          -1.80676651 -1.6112416983 -1.5228950977 -1.8139212132 -1.6550728083 -1.914360404
          -1.7108389139 -1.8086115122 -1.8614859581
        </DataArray>
        <DataArray type="Float32" Name="VELOCITY" NumberOfComponents="3" ComponentName0="X-VELOCITY" ComponentName1="Y-VELOCITY" ComponentName2="Z-VELOCITY" format="ascii" RangeMin="0" RangeMax="8.0611562729">
          0 0 0 0 0 0
          2.2585775852 0.010677141137 0 3.0086629391 0.058027721941 0
          2.1661524773 0.076948694885 0 3.3672692776 0.061132285744 0
          0 0 0 3.3827757835 -0.10153952241 0
          2.3761720657 -0.001174258301 0 3.0407686234 -0.061213899404 0
          0 0 0 3.7770397663 -0.11752085388 0
          3.7028875351 -0.10548704863 0 4.2385168076 -0.10625127703 0
          2.2942883968 -0.0031678634696 0 3.0410723686 -0.091016963124 0
          0 0 0 4.6852650642 -0.094310052693 0
          2.7770609856 -0.09176979214 0 4.6763310432 -0.14549353719 0
          4.1876368523 -0.14011152089 0 2.2047505379 -0.030387725681 0
          5.0872249603 -0.13088750839 0 0 0 0
          5.5240931511 -0.12068089098 0 3.5882179737 -0.13078323007 0
          4.9986815453 -0.1391774565 0 2.7322547436 -0.07951567322 0
          5.5356206894 -0.16031974554 0 2.1803929806 -0.030638013035 0
          5.8493261337 -0.16958996654 0 4.8492388725 -0.13197268546 0
          6.1884446144 -0.14965823293 0 0 0 0
          4.3107733727 -0.10947318375 0 5.4594368935 -0.13778111339 0
          5.7419419289 -0.16463908553 0 3.4724647999 -0.098085805774 0
          6.0632839203 -0.20611163974 0 2.6834430695 -0.077017836273 0
          2.123739481 -0.022927423939 0 6.37996912 -0.22517681122 0
          0 0 0 6.6362266541 -0.201382339 0
          5.2101631165 -0.084603019059 0 4.4790825844 -0.079611584544 0
          5.6899290085 -0.086060144007 0 3.542873621 -0.091132983565 0
          6.0874905586 -0.11087836325 0 6.3822741508 -0.17785833776 0
          2.6809587479 -0.070674873888 0 6.6185646057 -0.2305149287 0
          6.7729225159 -0.24760901928 0 2.05945158 -0.0061184689403 0
          6.3397870064 -0.032543364912 0 3.4281628132 -0.077405720949 0
          6.6493940353 -0.091579526663 0 0 0 0
          6.8990168571 -0.19755063951 0 4.6057415009 -0.05509473756 0
          6.1097621918 0.0035613530781 0 6.8787965775 -0.16114845872 0
          5.569788456 -0.0064262351952 0 2.5795660019 -0.071834139526 0
          7.0201792717 -0.21556733549 0 1.8584625721 -0.0099488887936 0
          7.0507626534 -0.19373393059 0 6.8881492615 0.01475176122 0
          5.4661507607 0.0073585412465 0 6.6643476486 0.067605286837 0
          7.2219815254 -0.12544547021 0 7.1241846085 -0.040833249688 0
          0 0 0 6.983499527 -0.097671456635 0
          3.4848766327 -0.064441919327 0 6.4776549339 0.085367776453 0
          2.5424082279 -0.050731729716 0 4.735244751 -0.032822337002 0
          7.2519388199 -0.12474928051 0 6.1990060806 0.076210282743 0
          1.8551069498 -0.03512737155 0 7.1289510727 -0.034380316734 0
          7.3946247101 -0.034275580198 0 7.0948405266 0.10338838398 0
          7.2826046944 0.044328901917 0 5.8348331451 0.046916417778 0
          6.9613995552 0.13417591155 0 0 0 0
          7.0186376572 0.029295487329 0 3.3466358185 -0.048737522215 0
          7.4273562431 -0.019701501355 0 6.7808618546 0.12848840654 0
          2.5576119423 -0.059125453234 0 5.4815516472 0.0041730254889 0
          4.5113453865 -0.035745054483 0 6.5073394775 0.095810435712 0
          1.7957097292 -0.024273080751 0 7.1231870651 0.11134523153 0
          7.2725100517 0.10102782398 0 7.4972062111 0.0053458078764 0
          7.5044841766 0.0064221541397 0 7.2330546379 0.11527382582 0
          7.3883185387 0.061358645558 0 3.4947268963 -0.050209663808 0
          6.2240524292 0.051421999931 0 7.1019163132 0.12994866073 0
          0 0 0 6.9957380295 0.16216826439 0
          6.9414405823 0.10885512829 0 2.5525977612 -0.052599079907 0
          5.6826434135 -0.0034706555307 0 7.3514800072 0.10510513186 0
          6.7617101669 0.059524077922 0 1.7502793074 -0.038988802582 0
          7.0116090775 0.24039013684 0 7.3316717148 0.020573955029 0
          7.2056493759 0.072804510593 0 7.4454994202 -0.041194155812 0
          7.4138154984 -0.0088414484635 0 4.881588459 -0.025688501075 0
          6.4719581604 0.0065686344169 0 3.4723145962 -0.049076493829 0
          7.1142015457 0.069985158741 0 7.0538783073 0.25043672323 0
          0 0 0 6.8651089668 0.24177908897 0
          2.5998241901 -0.027872564271 0 7.0068750381 0.032023560256 0
          7.1336407661 0.076777420938 0 1.876970768 -0.033365827054 0
          6.0128593445 -0.051609635353 0 6.7902240753 0.30865824223 0
          7.2480225563 -0.031507309526 0 6.8774218559 -0.03229451552 0
          7.3218994141 -0.10353504121 0 4.6072087288 -0.036819923669 0
          7.1574511528 0.006806911435 0 6.9018974304 0.2000926137 0
          7.2364230156 -0.11404811591 0 7.1095371246 -0.004789008759 0
          0 0 0 6.6368179321 0.26540511847 0
          5.4904112816 -0.049692276865 0 3.0297477245 -0.02580056712 0
          6.6132259369 0.29280287027 0 6.9918518066 -0.027361888438 0
          7.0522985458 -0.067517310381 0 6.7840995789 -0.13305638731 0
          7.1542272568 -0.050054617226 0 6.7091217041 0.10015360266 0
          7.2037215233 -0.12592738867 0 1.773388505 -0.03554604575 0
          6.4251155853 0.30237612128 0 6.2438092232 -0.13036563993 0
          6.3800854683 0.21237769723 0 7.1189966202 -0.018141405657 0
          6.8834199905 -0.11718229949 0 4.9206051826 -0.042897082865 0
          7.140296936 -0.043110176921 0 0 0 0
          6.2425441742 0.22882027924 0 7.0274682045 -0.18053995073 0
          7.0843086243 -0.14690169692 0 6.1465210915 0.27254080772 0
          5.9211688042 -0.11508940905 0 2.7438597679 0.0092497179285 0
          6.6764454842 -0.22285400331 0 1.6570950747 -0.015893800184 0
          6.4278235435 -0.022734500468 0 3.7118945122 -0.015115298331 0
          5.9025959969 0.23996166885 0 7.1118617058 -0.069027170539 0
          6.9856982231 -0.24020801485 0 5.8686304092 0.21045732498 0
          6.3886327744 -0.20644941926 0 5.9773087502 0.12514144182 0
          4.7647075653 -0.0089124143124 0 7.1313095093 0.035098556429 0
          6.9168672562 -0.16426676512 0 0 0 0
          5.6267046928 0.17728121579 0 5.5434565544 -0.070027574897 0
          6.4816260338 -0.13363994658 0 7.2460045815 -0.019570712 0
          7.2720246315 -0.15021401644 0 2.4102945328 0.084163665771 0
          6.8584489822 -0.24249996245 0 5.423517704 0.20408353209 0
          5.7903938293 0.040745440871 0 3.0980405807 -0.010131536983 0
          6.0996222496 -0.16416077316 0 5.2323083878 0.1966022104 0
          6.5644750595 -0.15303969383 0 4.3416781425 0.024702789262 0
          7.2248883247 -0.20527620614 0 5.2433228493 0.14758941531 0
          5.835627079 -0.032659787685 0 6.882496357 -0.067890025675 0
          6.5791654587 -0.20312581956 0 5.1883740425 -0.025943754241 0
          7.0122556686 0.048556759953 0 5.2464394569 0.087944559753 0
          7.1401081085 0.13308598101 0 0 0 0
          4.6791815758 0.15852515399 0 1.9286080599 0.073705919087 0
          6.6083879471 -0.12274106592 0 5.7884664536 -0.088225767016 0
          5.9788203239 -0.077384315431 0 2.5752067566 -0.012729110196 0
          7.0634169579 -0.17932040989 0 4.4451565742 0.1726051271 0
          7.3882746696 0.080599166453 0 7.4793143272 -0.086481116712 0
          3.787201643 0.05135191977 0 5.1281738281 0.048557620496 0
          6.3108706474 -0.11949098855 0 4.7622284889 0.02741317451 0
          4.1213126183 0.13587449491 0 6.6016120911 -0.068933077157 0
          6.0677571297 -0.085217952728 0 6.7583441734 0.040229447186 0
          4.0856356621 0.15845623612 0 5.2418365479 0.010781602003 0
          4.2922472954 0.11632241309 0 7.4855494499 -0.10946328193 0
          5.4701004028 -0.011926383711 0 6.8856163025 0.15682031214 0
          6.8661360741 -0.10167193413 0 2.2601699829 0.042939629406 0
          3.6901721954 0.13243998587 0 0 0 0
          4.3292946815 0.090417437255 0 7.5482187271 0.072709530592 0
          6.1556725502 -0.073236986995 0 3.2271337509 0.042054444551 0
          6.0348258018 -0.031233802438 0 3.690315485 0.13899639249 0
          7.0384483337 0.23271849751 0 5.2838478088 -0.016120478511 0
          4.2993397713 0.059409506619 0 7.3539624214 -0.059278048575 0
          7.6690092087 -0.0018242220394 0 5.1187634468 0.038809135556 0
          6.6133966446 -0.00697989529 0 4.2182760239 0.063643962145 0
          7.260363102 0.21436777711 0 1.9384002686 0.0036760661751 0
          6.340590477 -0.023575685918 0 3.4494614601 0.12150024623 0
          3.3152353764 0.13883730769 0 5.3924221992 -0.035335622728 0
          6.4805598259 0.10359146446 0 5.753013134 0.036563552916 0
          4.3008360863 0.044729944319 0 3.4159874916 0.10691010207 0
          7.6803021431 -0.015337159857 0 6.6719093323 0.21294589341 0
          2.3770360947 0.019670238718 0 7.1700954437 0.038547627628 0
          7.5332770348 0.10518960655 0 0 0 0
          3.3054282665 -0.0076782489195 0 3.3702783585 0.094042047858 0
          3.0137171745 0.089609146118 0 4.4153475761 0.0094098672271 0
          6.3550038338 0.071095742285 0 6.8449373245 0.25526502728 0
          2.9435868263 0.079971827567 0 5.5521554947 -0.042377669364 0
          4.7553691864 0.058789353818 0 3.7551472187 0.053612526506 0
          5.5088143349 0.061968337744 0 7.5544805527 0.050227239728 0
          3.4219655991 0.081205435097 0 7.7140746117 0.013756572269 0
          6.0444865227 0.020066721365 0 1.9005061388 -0.021413108334 0
          7.109295845 0.18485064805 0 2.8174436092 0.090164482594 0
          6.9821424484 0.13794834912 0 2.8986561298 -0.031893771142 0
          6.1972727776 0.13887697458 0 4.4013214111 -0.0059326458722 0
          2.7924523354 0.08950676024 0 6.423725605 0.21833428741 0
          3.4081962109 0.061339363456 0 6.0443086624 0.11027681828 0
          7.7213406563 0.00069821329089 0 7.3800520897 0.13501527905 0
          7.4099845886 0.051725178957 0 2.4079499245 0.0083489231765 0
          0 0 0 2.4874081612 0.0010692843935 0
          2.774409771 0.09080209583 0 6.5917282104 0.20534153283 0
          2.1912207603 -0.066860303283 0 3.4453778267 0.039824094623 0
          2.3054468632 0.024590265006 0 5.5755953789 0.072995513678 0
          4.6733837128 0.052554603666 0 5.1343960762 -0.00015110710228 0
          7.5933146477 0.071755938232 0 2.2627825737 0.033143673092 0
          7.6023359299 -0.056753210723 0 4.3414359093 0.0015229058918 0
          2.7496874332 0.073951974511 0 5.6384086609 0.037486985326 0
          6.8761811256 0.20266878605 0 1.8942875862 -0.017039151862 0
          5.9058818817 0.12610515952 0 6.8838982582 0.091291852295 0
          2.1528234482 0.031351819634 0 7.2226076126 0.2091627419 0
          3.684678793 0.035813201219 0 3.4816584587 0.034913577139 0
          2.0689446926 0.038830120116 0 6.0769634247 0.16205272079 0
          6.4580407143 0.1732544601 0 2.6815388203 0.063126198947 0
          7.6016540527 -0.069198302925 0 7.4355549812 0.15865527093 0
          7.1967477798 -0.058889660984 0 0 0 0
          0 0 0 0 0 0
          0 0 0 2.5353746414 -0.014158932492 0
          1.9893077612 0.027348723263 0 0 0 0
          6.2991490364 0.1180928126 0 2.7048184872 0.045352760702 0
          3.9829890728 0.01159669552 0 5.3957328796 0.040059495717 0
          3.4229049683 0.019592678174 0 4.6142687798 0.026717087254 0
          4.5167708397 0.013412560336 0 0 0 0
          5.2504796982 0.028426893055 0 7.4560284615 0.023774055764 0
          7.2729091644 0.22757771611 0 1.9185765982 0.021614801139 0
          7.4064240456 -0.17157383263 0 1.8374052048 -0.019517570734 0
          3.6378018856 0.0067851180211 0 5.5400810242 0.082567609847 0
          6.6270980835 -0.013526861556 0 0 0 0
          6.1913051605 0.099262408912 0 7.0403790474 0.21459044516 0
          0 0 0 5.7557554245 0.083241470158 0
          1.7741885185 0.017333369702 0 0 0 0
          6.9707260132 -0.14918832481 0 7.4179353714 -0.16759155691 0
          2.5706012249 0.037300150841 0 7.3218603134 0.098361469805 0
          2.5612792969 -0.02864202857 0 3.6320393085 0.010643287562 0
          0 0 0 6.0101604462 0.02367253229 0
          4.9153938293 -0.0014279403258 0 4.0923490524 0.032818987966 0
          1.8022209406 0.01044698339 0 4.3799295425 -0.028386080638 0
          2.8841688633 0.029894940555 0 1.7964420319 -0.032764472067 0
          7.2720828056 -0.078868739307 0 0 0 0
          7.2010774612 -0.24752759933 0 7.2366075516 0.13333231211 0
          5.1611418724 0.024449819699 0 6.1809945107 0.021774293855 0
          3.6876344681 -0.04093138501 0 6.3648633957 -0.09983099252 0
          5.2815890312 -0.04235336557 0 6.9550738335 0.10630337149 0
          5.4264554977 0.00066813576268 0 0 0 0
          7.2831482887 -0.2079205811 0 1.4798228741 0.017171695828 0
          0 0 0 6.778866291 -0.20151510835 0
          2.587346077 -0.045949619263 0 7.1637263298 0.0036754882894 0
          2.9966673851 -0.0039714090526 0 3.6163387299 0.017915803939 0