<?xml version="1.0"?>
<VTKFile type="PolyData" version="0.1" byte_order="LittleEndian" compressor="vtkZLibDataCompressor">
  <PolyData>
    <Piece NumberOfPoints="1041" NumberOfVerts="0" NumberOfLines="0" NumberOfStrips="0" NumberOfPolys="1940">
      <PointData>
        <DataArray type="Float32" Name="PRESSURE" format="ascii" RangeMin="-10.458345413" RangeMax="1.2296867371">
          0 0.11538284272 0 0.015690064058 0.073020882905 0
          -0.010266043246 -0.00058071227977 0.0099197877571 -0.029833627865 -0.054455269128 0
          -0.092055931687 -0.049378193915 -0.094820834696 -0.12692368031 -0.10443150997 0
          -0.1772890985 -0.12201869488 -0.17817890644 -0.16842281818 -0.055795118213 -0.18584674597
          0 -0.23548869789 -0.18021947145 -0.23738452792 -0.13623601198 -0.23777723312
          -0.054428514093 -0.281719625 0 -0.23671413958 -0.30166637897 -0.28564152122
          -0.25034660101 -0.30230164528 -0.15817967057 -0.26110956073 -0.27146032453 -0.07704539597
          -0.26634457707 0 -0.35227230191 -0.32228365541 -0.35348492861 -0.29057499766
          -0.33846372366 -0.27379405499 -0.2456882894 -0.18891327083 -0.080426193774 -0.24933262169
          -0.37549480796 -0.25717702508 -0.33828505874 -0.20329640806 0 -0.27853068709
          -0.35949134827 -0.27360677719 -0.32919716835 -0.22371818125 -0.13052040339 -0.22429302335
          -0.070389151573 -0.37410405278 -0.2611002326 -0.37607640028 -0.2755381465 -0.33856159449
          -0.21157850325 0 -0.20486538112 -0.30634358525 -0.19750636816 -0.2123593837
          -0.15206460655 -0.25294539332 -0.2279317975 -0.10615365207 -0.30167114735 -0.34800937772
          -0.34837850928 -0.17797839642 -0.31499657035 -0.21164681017 0 -0.18329612911
          -0.24394141138 -0.24181178212 -0.20191733539 -0.1561460048 -0.15376885235 -0.16391202807
          -0.23890034854 -0.05798650533 -0.1351095587 -0.28996875882 -0.27370771766 -0.28262850642
          -0.30743187666 -0.18497496843 -0.1262293905 -0.24527230859 -0.23149514198 0
          -0.17390304804 -0.23369637132 -0.076392717659 -0.25525546074 -0.12861287594 -0.30499133468
          -0.12202367187 -0.25789129734 -0.20964324474 -0.26967895031 -0.34894415736 -0.15673065186
          -0.073205165565 -0.2084466964 -0.17243134975 -0.17492064834 -0.31379759312 0
          -0.28117263317 -0.093156047165 -0.33063539863 -0.36323982477 -0.12563617527 -0.070739164948
          -0.22395333648 -0.12668044865 -0.26014405489 -0.22994251549 -0.16122126579 -0.32228463888
          -0.33973154426 -0.14111572504 -0.31611213088 0 -0.19380754232 -0.31924271584
          -0.17495693266 -0.40529426932 -0.13991397619 -0.13148464262 -0.13365568221 -0.36804324389
          -0.22237838805 -0.45210123062 -0.06051453203 -0.22412143648 -0.30213224888 -0.13397791982
          -0.37524047494 -0.3796479702 -0.16137944162 -0.46086016297 0 -0.25121197104
          -0.15865010023 -0.17627163231 -0.35702970624 -0.40101850033 -0.27728635073 -0.62252175808
          -0.38730761409 -0.46052989364 -0.0513850227 -0.13991636038 -0.26012003422 -0.25372067094
          -0.38206112385 -0.35094299912 -0.48283833265 -0.15738543868 -0.13025921583 -0.49486884475
          0 -0.49599504471 -0.29719018936 -0.15337333083 -0.26332095265 -0.47207763791
          -0.38254436851 -0.17923972011 -0.37494966388 -0.5081024766 -0.52620315552 -0.059453867376
          -0.18200100958 -0.54716110229 -0.37049841881 -0.2932215035 -0.32210433483 -0.055318746716
          -0.53598839045 -0.59981620312 -0.096064150333 -0.33111411333 -0.16107700765 -0.51275420189
          0 -0.45872312784 -0.076231628656 -0.6567491889 -0.24166069925 -0.53768754005
          -0.53395217657 -0.13511745632 -0.19543683529 -0.31500986218 -0.5931828022 -0.33777749538
          -0.67715114355 -0.62637633085 -0.054126992822 0.0010247073369 -0.14025248587 -0.042564272881
          -0.19510853291 -0.28106054664 -0.27997520566 -0.46007624269 -0.72561657429 -0.10054786503
          -0.69033139944 -0.47354009748 0 -0.41718882322 -0.28905764222 -0.3460996151
          -0.031564321369 -0.55061817169 -0.75662374496 -0.12001721561 -0.26220405102 -0.19782826304
          -0.61351919174 -0.62134385109 -0.44603559375 -0.70634812117 -0.80061912537 -0.27437317371
          -0.33765247464 -0.4367659986 0.010482905433 -0.22196084261 -0.027366288006 -0.11488566548
          -0.075510635972 -0.76614016294 -0.2299015522 -0.25391441584 -0.5844912529 -0.21211922169
          -0.49262341857 -0.73501718044 -0.47338190675 -0.42539346218 0 -0.25411045551
          -0.12745244801 -0.16101446748 -0.82394611835 -0.36683255434 -0.053517222404 -0.035010013729
          -0.6546869278 -0.55942475796 -0.71597629786 -0.69669371843 -0.23850779235 -0.58407080173
          -0.055633492768 -0.47783392668 -0.52649587393 -0.17311713099 -0.78510212898 0.012989689596
          -0.20128245652 -0.10260570049 -0.2115598321 -0.3570792675 -0.2000785023 -0.79317009449
          -0.65394020081 -0.74887758493 -0.64361792803 0 -0.46342721581 -0.4679004252
          -0.22528320551 -0.5370926857 0.05594214797 -0.15351092815 -0.014818414114 -0.66844540834
          -0.55396324396 -0.09751766175 -0.68018746376 -0.11837609857 -0.69211614132 -0.069288648665
          -0.2168803215 -0.16461955011 -0.72533166409 -0.48752573133 -0.33089572191 -0.6952021122
          -0.18550798297 -0.7824691534 -0.48091226816 -0.11663459241 -0.22318272293 -0.51936399937
          -0.69933086634 -0.1998295188 -0.66063457727 -0.66886430979 -0.77589958906 0
          -0.45950433612 0.07212754339 0.007861639373 -0.45100849867 -0.23997421563 -0.03932755813
          -0.69404095411 -0.1531419158 -0.13362948596 -0.52357470989 -0.1144984737 -0.19963572919
          -0.46710526943 -0.12023275346 -0.31024780869 -0.60070043802 -0.64234477282 -0.21534836292
          -0.74010938406 -0.48157954216 -0.4593128562 -0.47342407703 -0.80137246847 -0.17618665099
          -0.52821850777 -0.58451986313 -0.21382501721 -0.65882879496 -0.2119744122 -0.46483001113
          -0.82283216715 -0.65405839682 -0.15132324398 -0.51854979992 -0.45015671849 -0.20381130278
          -0.21960611641 -0.7887776494 -0.43421989679 -0.35672810674 -0.16593416035 -0.43409579992
          -0.21289168298 -0.50568443537 -0.51809591055 -0.18934088945 -0.70221579075 -0.54214328527
          -0.58811020851 -0.38336053491 -0.45466220379 -0.81800925732 -0.37356194854 -0.48069742322
          -0.71997523308 -0.20298762619 -0.59357345104 -0.16507425904 -0.51228189468 -0.80697470903
          -0.48486056924 -0.47814008594 -0.3080740571 -0.44411590695 -0.77542752028 -0.46659466624
          -0.42354902625 -0.53441375494 -0.24211147428 -0.10492639989 -0.33485341072 -0.56934762001
          -0.75016081333 -0.50498092175 -0.63165932894 -0.63165044785 -0.45466047525 -0.3967128098
          -0.49385181069 -0.32939961553 -0.20590499043 -0.7012348175 -0.36888971925 -0.43366679549
          -0.58194506168 -0.51941972971 -0.5686853528 -0.38760522008 -0.46336862445 -0.48191106319
          -0.66482311487 -0.71953189373 -0.44362595677 -0.25665971637 -0.43833124638 -0.58048403263
          -0.39754515886 -0.47983905673 -0.63960069418 -0.46504488587 -0.60372042656 -0.5445894599
          -0.59326440096 -0.45354741812 -0.34839019179 -0.32915639877 -0.43029236794 -0.60909229517
          -0.61155480146 -0.66255652905 -0.46056643128 -0.49725720286 -0.50363814831 -0.45606586337
          -0.61229014397 -0.68034130335 -0.44476130605 -0.55649924278 -0.52506375313 -0.4987783134
          -0.46863213181 -0.46397557855 -0.74350255728 -0.430850178 -0.46868592501 -0.72627413273
          -0.39273843169 -0.50130695105 -0.45386776328 -0.42152807117 -0.43200218678 -0.50244396925
          -0.77996647358 -0.47481590509 -0.45717903972 -0.7677372694 -0.68531060219 -0.48373550177
          -0.37104982138 -0.60114151239 -0.51213109493 -0.44757193327 -0.60203772783 -0.51114791632
          -0.43305030465 -0.86318296194 -0.48161694407 -0.35865285993 -0.40262627602 -0.87481743097
          -0.31805810332 -0.37864068151 -0.59020334482 -0.51475334167 -0.43922454119 -0.83375656605
          -0.87821388245 -0.88721179962 -0.9092669487 -0.29976183176 -0.35101056099 -0.41610002518
          -0.76840168238 -0.59675371647 -0.49167829752 -0.94901382923 -0.74954390526 -0.43319535255
          -0.99639254808 -0.57657134533 -0.38640725613 -0.33827087283 -0.4168343246 -1.0118206739
          -0.28526076674 -0.37994873524 -0.72136580944 -0.43607890606 -0.41264355183 -0.94387030602
          -0.94475311041 -0.9969265461 -0.58787810802 -1.0705218315 -0.43725886941 -0.9219981432
          -0.63820147514 -0.98928105831 -1.0594954491 -0.40449208021 -0.42189320922 -0.89991790056
          -0.61981612444 -0.46174645424 -0.44964805245 -0.42463192344 -0.6612175107 -1.076574564
          -0.44111400843 -0.46792787313 -0.97148525715 -1.0320219994 -0.81445503235 -1.0293064117
          -0.63002115488 -0.733256042 -0.40852487087 -0.97236770391 -0.50301921368 -1.0935351849
          -0.97548693419 -0.47917383909 -0.78136968613 -1.1112341881 -0.87845385075 -0.5207414031
          -0.50516951084 -0.80903637409 -0.67072844505 -1.0801954269 -0.84441864491 -0.54496622086
          -0.93132847548 -0.47316744924 -1.0209050179 -0.95770961046 -0.85591846704 -0.90995675325
          -0.98451602459 -0.73524922132 -0.55163311958 -0.54117113352 -0.90624803305 -1.0390421152
          -0.88956403732 -0.84483790398 -1.0056475401 -0.50243902206 -0.97250932455 -0.98271340132
          -0.84816628695 -0.88814437389 -0.90569335222 -0.71006494761 -0.79939824343 -0.64857447147
          -0.79725295305 -0.88176673651 -1.0211987495 -0.61122691631 -0.84914010763 -0.92459619045
          -1.0149011612 -0.53990072012 -0.82916396856 -0.71733576059 -0.84166502953 -0.81587922573
          -0.81591242552 -1.0780333281 -1.0452282429 -0.78176981211 -0.79481476545 -0.96091425419
          -0.61946344376 -0.73778367043 -0.72964406013 -0.76545143127 -0.64260149002 -0.49778583646
          -0.57599151134 -0.69099652767 -0.59546256065 -0.97309398651 -0.58379977942 -1.1401642561
          -1.048759222 -0.57505470514 -0.83694493771 -0.65202510357 -0.56026947498 -1.1084724665
          -1.1249597073 -0.8438500762 -0.54169797897 -0.91943639517 -0.30813628435 -0.74670910835
          -0.92057132721 -0.52842593193 -0.19935876131 -0.61338734627 -0.25148019195 -0.26346620917
          -0.68027281761 -0.48487791419 -0.27387166023 -1.0829238892 -0.98997092247 -1.1319146156
          -1.0017837286 -0.28850495815 -0.73861640692 -0.47932606936 -0.95249199867 -0.29962646961
          -0.86757582426 -1.0123773813 -0.32399451733 -1.1107591391 -0.069494321942 -0.49406480789
          0.027867492288 0.010760359466 0.0187637005 -0.78078138828 -0.31885147095 0.050829946995
          -0.5220080018 0.0081134289503 -0.31459602714 -1.0363810062 -0.99789196253 -0.81507116556
          -1.0179085732 -0.01988232322 -0.94804680347 -0.55216634274 -0.10020385683 -0.31058445573
          -0.84268325567 0.24140185118 -0.14493048191 0.2620985508 0.24435260892 -0.98405623436
          0.30933335423 -0.32695916295 -0.56430894136 0.27511456609 -0.1815893203 -0.97908991575
          0.23514841497 -0.94409275055 -0.97057694197 -0.84352886677 -0.32728791237 -0.18103711307
          0.34865707159 -0.57269901037 0.16673062742 -0.18555752933 -0.31238821149 0.020432084799
          0.40370884538 -0.07541564852 -0.60147476196 0.37319868803 0.37373039126 0.47379910946
          -0.78886014223 -0.16399087012 -0.8812533617 -0.12847521901 -0.29296243191 0.52268123627
          -0.92232084274 0.3087118268 -0.10487504303 -0.57974720001 0.3514303863 -0.10803445429
          -0.27851995826 0.043166194111 -0.051552660763 0.16609208286 -0.085588939488 -0.074918337166
          0.44260320067 0.3152461946 -0.3095909059 0.39435842633 -0.69087660313 -0.79964959621
          0.0086468849331 0.46450021863 -0.53375697136 0.0008253189153 -0.10351960361 0.19264708459
          0.21016202867 0.13694946468 -0.28047055006 -0.065400928259 0.32569807768 -0.035485371947
          0.010832604021 -0.54088658094 0.18770322204 -0.6049888134 0.030606921762 0.1351223141
          -0.11899744719 0.23741790652 0.14195804298 -0.01507385727 -0.29995217919 0.12735928595
          0.13950183988 0.022677058354 -0.067324355245 0.25889405608 -0.1462316215 0.27598765492
          0.0020345814992 -0.059965927154 -0.078788667917 -0.036387041211 -0.37786307931 -0.2007201314
          0.28816509247 0.38273149729 0.057537525892 -0.17044961452 -0.21391235292 -0.24031761289
          -0.17040212452 0.23085384071 -0.40857487917 0.26454016566 -0.64620113373 -0.22505824268
          0.46050563455 -0.57130253315 -0.44004586339 -0.16148868203 -0.52017432451 -0.58281290531
          -0.17914994061 -0.80372697115 0.16776053607 -0.45013439655 -0.08262129873 0.41933560371
          -0.55708229542 -0.4232737422 -0.70213496685 0.44200003147 -1.0766659975 -1.2725077868
          -0.43196156621 -1.1694657803 0.33249434829 -1.0085741282 0.41791242361 0.16325834394
          -0.83379983902 0.063756860793 -1.134160161 -0.8586742878 0.30055102706 -0.52167701721
          -1.5144686699 -0.73804032803 -0.91929000616 -1.1012551785 -0.82439261675 -0.50699287653
          -1.68770504 0.14512600005 -0.90507632494 -1.5467504263 -1.623025775 0.29128307104
          0.29960757494 0.26823997498 0.29504704475 -1.3321530819 -1.1144218445 -1.3662575483
          -0.48824301362 -1.0154919624 -1.0709462166 -1.0449159145 -1.7529883385 -1.19917202
          -1.1893161535 -1.5760012865 -1.1073044538 -1.2920914888 -1.6945749521 0.15733094513
          0.25390073657 0.060346391052 -1.4665762186 -0.14830245078 -1.7096273899 -1.3091671467
          -0.60398262739 -1.4694498777 -1.5837267637 -1.578520298 -1.3210982084 -1.2331936359
          -1.5136669874 -1.371735692 -1.5437377691 -1.3588079214 -1.3338561058 -0.26959651709
          0.070969633758 -0.12143152952 -1.6676664352 -1.5718255043 -1.6633994579 -0.692237854
          -1.5863152742 -1.3897777796 -1.4225609303 -1.7593054771 -1.2499539852 -1.4202744961
          -1.3377745152 -1.3306846619 -1.305791378 -0.46422713995 -0.23733864725 -1.3565071821
          -1.6587305069 -1.3937026262 -1.376873374 -0.72350627184 -1.4110546112 -1.4224973917
          -1.6983039379 -1.312751174 -1.4239299297 -1.5659885406 -1.3252108097 -1.7152045965
          -1.2175052166 -1.3736430407 -1.2519336939 -1.6095588207 -1.2956500053 -0.77757769823
          -0.5678216815 -1.5610918999 -1.2824107409 -1.2752847672 -1.4578026533 -1.0264540911
          -1.3809050322 -1.2690402269 -1.2580918074 -1.3549283743 -1.4638243914 -1.3124400377
          -1.4654871225 -1.2174162865 -1.3282396793 -1.4166177511 -0.90682971478 -1.5057984591
          -1.4260492325 -1.0982345343 -1.2847642899 -1.2858521938 -1.3063186407 -1.4900114536
          -1.3026446104 -1.4957890511 -1.2857743502 -1.4885122776 -1.4253405333 -1.2857027054
          -1.4404778481 -1.2667536736 -1.5777724981 -1.550572753 -1.1420688629 -1.6138436794
          -1.2978876829 -1.3744702339 -1.2778685093 -1.4211111069 -1.3799958229 -1.3690453768
          -1.3090199232 -1.5674721003 -1.4107729197 -1.6747140884 -1.3312492371 -1.2844444513
          -1.2123738527 -1.6391910315 -1.8577848673 -1.3334028721 -1.8035418987 -1.6903562546
          -1.3056851625 -1.3271570206 -1.4275926352 -1.5803608894 -1.3951801062 -1.2648197412
          -1.3913270235 -1.4769163132 -1.570417881 -1.4466884136 -1.3824586868 -1.9751347303
          -1.2244716883 -2.239202261 -1.3367934227 -2.2342443466 -1.4343150854 -1.4152598381
          -1.948803544 -1.6833840609 -1.4342181683 -1.3676704168 -1.5457357168 -1.1124725342
          -1.525226593 -1.3212302923 -1.3490217924 -1.3666337729 -1.1895581484 -1.1216928959
          -1.6160936356 -1.4263586998 -1.1809273958 -3.219584465 -2.1221506596 -3.2505903244
          -1.6293751001 -1.0591282845 -1.4426418543 -2.8489186764 -1.485933423 -1.4534299374
          -1.7335736752 -1.1823745966 -1.2270900011 -1.4325151443 -1.2173080444 -1.7721863985
          -1.1721584797 -1.3128907681 -1.1803123951 0.52698850632 -1.9115978479 -1.5322971344
          -0.43537154794 -1.1719363928 -3.8785912991 -6.8084783554 -1.5036058426 -5.2940349579
          -1.5523393154 -1.9623775482 -1.1974898577 -1.4517041445 -1.6779845953 -0.44528225064
          -1.6765390635 -1.2038991451 -2.1541872025 -1.1095328331 -1.168533802 -1.1851170063
          -1.1477614641 0.80258059502 -2.2705416679 1.0781664848 -0.54440826178 -7.1872229576
          -1.7161710262 -1.5991485119 -10.458345413 -1.1387090683 -4.7739291191 -1.6722310781
          1.228761673 -1.1898622513 -2.8345999718 -2.0726151466 0.36693748832 -1.0236139297
          -1.1074303389 -3.216827631 -1.2454764843 -0.43073385954 -1.2524065971 -3.2536690235
          -1.5457823277 -1.4692581892 -1.2504770756 -1.7010374069 -1.0375728607 -5.4399638176
          -2.1740632057 0.37657898664 -6.5030417442 1.2296867371 -1.1422863007 -1.0535075665
          -3.8944964409 -4.7605261803 -10.35189724 -0.21238225698 -7.1313290596 0.42498630285
          -0.47898882627 1.2050583363 0.81502538919
        </DataArray>
        <DataArray type="Float32" Name="VELOCITY" NumberOfComponents="3" ComponentName0="X-VELOCITY" ComponentName1="Y-VELOCITY" ComponentName2="Z-VELOCITY" format="ascii" RangeMin="0" RangeMax="8.1947464359">
          0 0 0 0 0 0
          1.9288836718 0.012466133572 0 2.6039204597 0.047929294407 0
          1.8412694931 0.058026395738 0 3.0019443035 0.049720533192 0
          0 0 0 3.2074501514 -0.063456617296 0
          2.0291047096 -0.00040578577318 0 2.767295599 -0.033196784556 0
          0 0 0 3.7275531292 -0.088811002672 0
          3.6574881077 -0.053099110723 0 4.2979974747 -0.058885689825 0
          1.9656816721 0.017115823925 0 2.8418600559 -0.049514144659 0
          0 0 0 4.7944436073 -0.053531840444 0
          2.5523188114 -0.045071534812 0 4.8166360855 -0.076365314424 0
          4.2770638466 -0.06456335634 0 1.9187753201 -0.014856864698 0
          5.2268714905 -0.067936129868 0 0 0 0
          5.639934063 -0.06224937737 0 3.598326683 -0.052600033581 0
          5.1422410011 -0.066742949188 0 2.5359306335 -0.023797200993 0
          5.6575708389 -0.089431226254 0 1.929954648 -0.015801323578 0
          5.9524264336 -0.099459700286 0 4.9881043434 -0.053609687835 0
          6.2744870186 -0.085890233517 0 0 0 0
          4.4160141945 -0.023346463218 0 5.5605745316 -0.074596218765 0
          5.8354082108 -0.10438703001 0 3.4814968109 -0.016726857051 0
          6.1487236023 -0.1411613971 0 2.5348434448 -0.022408915684 0
          1.9063346386 -0.0086083719507 0 6.4624757767 -0.15484008193 0
          0 0 0 6.719558239 -0.13503028452 0
          5.2930216789 -0.019075252116 0 4.5902738571 0.0040865750052 0
          5.7433724403 -0.039889626205 0 3.5745754242 -0.001025759615 0
          6.1198191643 -0.080095171928 0 6.4205675125 -0.14653754234 0
          2.5831010342 -0.013022426516 0 6.6717853546 -0.18778441846 0
          6.846344471 -0.18991357088 0 1.8787233829 0.005604904145 0
          6.3179683685 -0.026236465201 0 3.4625942707 0.011654653586 0
          6.6439900398 -0.098554611206 0 0 0 0
          7.0180974007 -0.15368007123 0 4.6960043907 0.025362303481 0
          6.084291935 0.02078271471 0 6.908100605 -0.16344840825 0
          5.5806889534 0.039901286364 0 2.5208940506 -0.021595766768 0
          7.090092659 -0.19605399668 0 1.7135077715 -0.0027674757876 0
          7.1666660309 -0.16795428097 0 6.8719334602 -0.0088662616909 0
          5.4544663429 0.057702891529 0 6.6089348793 0.059317369014 0
          7.291844368 -0.13994371891 0 7.1589608192 -0.070512399077 0
          0 0 0 7.157948494 -0.090599656105 0
          3.5444676876 0.011863275431 0 6.4018054008 0.08630745858 0
          2.5122561455 -0.0083771459758 0 4.794878006 0.045202527195 0
          7.3655934334 -0.12724858522 0 6.1211471558 0.084559574723 0
          1.737334013 -0.025152573362 0 7.2919425964 -0.048444963992 0
          7.4963750839 -0.064119681716 0 7.1159706116 0.0945398435 0
          7.3551359177 0.020965849981 0 5.7478647232 0.064667239785 0
          6.9484386444 0.14353017509 0 0 0 0
          7.2360973358 -0.0081025455147 0 3.4244365692 0.015020587482 0
          7.5552344322 -0.036841154099 0 6.740152359 0.14238730073 0
          2.5690658092 -0.016719000414 0 5.3967003822 0.031937852502 0
          4.5526814461 0.021945040673 0 6.4372105598 0.10415285826 0
          1.7045830488 -0.01668561995 0 7.3095965385 0.058034036309 0
          7.4279336929 0.061647407711 0 7.6370720863 -0.010104377754 0
          7.6571807861 -0.011266600341 0 7.3218326569 0.13398489356 0
          7.5195889473 0.060346089303 0 3.5794849396 0.0089904535562 0
          6.1257786751 0.052495587617 0 7.1544332504 0.16789372265 0
          0 0 0 7.187019825 0.087915174663 0
          6.9627375603 0.13832740486 0 2.5960252285 -0.024121001363 0
          5.5507807732 -0.00035160698462 0 7.4700641632 0.084589168429 0
          6.7527842522 0.070817746222 0 1.6777089834 -0.030253766105 0
          7.1302862167 0.15035323799 0 7.4688873291 0.029915995896 0
          7.3099374771 0.11033106595 0 7.6040678024 -0.049011256546 0
          7.5376758575 -0.010510462336 0 4.8252367973 -0.022046590224 0
          6.4058465958 -0.006465530023 0 3.5523426533 -0.01825335063 0
          7.199821949 0.12518580258 0 7.1305217743 0.18624952435 0
          0 0 0 6.9923467636 0.12737575173 0
          2.6610929966 -0.015375069343 0 7.0948615074 0.077696040273 0
          7.1814513206 0.069739729166 0 1.8239480257 -0.026761403307 0
          5.8562011719 -0.084493651986 0 6.8671269417 0.1895121634 0
          7.3548774719 -0.031993068755 0 6.9596629143 -0.0052706450224 0
          7.4545049667 -0.1263768822 0 4.5442214012 -0.046651020646 0
          7.2288188934 0.034048687667 0 6.9202561378 0.15662840009 0
          7.316649437 -0.12162891775 0 7.1691298485 0.042501050979 0
          0 0 0 6.7236299515 0.12438126653 0
          5.3307590485 -0.09187874198 0 3.1353049278 -0.018919996917 0
          6.6467170715 0.18993982673 0 6.9981584549 -0.025550426915 0
          7.1495075226 -0.026022804901 0 6.8784909248 -0.12435308844 0
          7.2152533531 -0.064814917743 0 6.684366703 0.084080122411 0
          7.3073735237 -0.16397732496 0 1.7245482206 -0.041697561741 0
          6.4882731438 0.1567171663 0 6.179605484 -0.16257500648 0
          6.3964366913 0.13843087852 0 7.1313004494 -0.010081925429 0
          6.8667840958 -0.11689084023 0 4.7795028687 -0.094117157161 0
          7.1411447525 -0.014108822681 0 0 0 0
          6.303691864 0.081986434758 0 7.0543460846 -0.20143324137 0
          7.1795344353 -0.11453136802 0 6.2093882561 0.14636653662 0
          5.7905097008 -0.16700549424 0 2.8132081032 -0.00907542184 0
          6.8041667938 -0.21475580335 0 1.5986440182 -0.012284657918 0
          6.3586163521 -0.030980344862 0 3.7092955112 -0.05310646072 0
          5.9749794006 0.095311172307 0 7.1963806152 -0.1111400947 0
          7.1142067909 -0.22222650051 0 5.9256105423 0.10188806057 0
          6.4685559273 -0.21102702618 0 5.9877357483 0.057850658894 0
          4.6059837341 -0.081649035215 0 7.1281633377 0.028292747214 0
          6.9432120323 -0.19407269359 0 0 0 0
          5.6781845093 0.050096198916 0 5.3882555962 -0.14829191566 0
          6.3791117668 -0.14067444205 0 7.1988930702 -0.0098313353956 0
          7.2832813263 -0.14722283185 0 2.3827142715 0.057397890836 0
          6.9969182014 -0.24728935957 0 5.5068969727 0.07349062711 0
          5.7868189812 -0.011818389408 0 3.1568086147 -0.046062562615 0
          6.1289386749 -0.19072526693 0 5.3036470413 0.06785826385 0
          6.466632843 -0.1598123312 0 4.2098107338 -0.053370375186 0
          7.2892780304 -0.22117437422 0 5.3353462219 0.037815108895 0
          5.787730217 -0.073041953146 0 6.9460172653 -0.086355268955 0
          6.7008528709 -0.22180451453 0 5.0158686638 -0.10892781615 0
          7.1103963852 0.019593102857 0 5.3176822662 -0.00043254028424 0
          7.1704339981 0.12746094167 0 0 0 0
          4.7272047997 0.055312007666 0 1.832213521 0.052750643343 0
          6.5250663757 -0.11321785301 0 5.7632856369 -0.13811933994 0
          5.8829550743 -0.10084777325 0 2.6301057339 -0.035065542907 0
          7.1655774117 -0.21308301389 0 4.5479464531 0.056036423892 0
          7.3443894386 0.089944310486 0 7.4665875435 -0.088065505028 0
          3.7092263699 -0.023050080985 0 5.182703495 -0.034295029938 0
          6.4072799683 -0.15912730992 0 4.5833926201 -0.0625397861 0
          4.1746835709 0.042193226516 0 6.542286396 -0.043629605323 0
          5.9438624382 -0.089210763574 0 6.8390393257 0.043235514313 0
          4.2074966431 0.04782788083 0 5.2572607994 -0.056417681277 0
          4.4172472954 0.013172627427 0 7.5200843811 -0.13802401721 0
          5.3881149292 -0.078955106437 0 7.0226383209 0.15286716819 0
          6.9728927612 -0.1537732631 0 2.2824378014 0.012322200462 0
          3.6411333084 0.065086089075 0 0 0 0
          4.4537343979 -0.0094182444736 0 7.5220556259 0.088997118175 0
          6.0118193626 -0.05166047439 0 3.1908545494 -0.017459610477 0
          6.0881390572 -0.078589729965 0 3.6845357418 0.053132604808 0
          7.1422080994 0.24055218697 0 5.2655215263 -0.064190723002 0
          4.1386203766 -0.022785525769 0 7.4264512062 -0.11642251164 0
          7.6656498909 0.0021402360871 0 4.9879827499 -0.03518563509 0
          6.7122368813 -0.069620639086 0 4.3432192802 -0.030034637079 0
          7.3139123917 0.24019652605 0 1.7946429253 -0.0037313431967 0
          6.2082986832 0.023659802973 0 3.4910497665 0.028567204252 0
          3.151515007 0.070881307125 0 5.3288669586 -0.05130314827 0
          6.4959230423 0.12701579928 0 5.7663712502 -0.0080682653934 0
          4.4152727127 -0.035363957286 0 3.4952702522 0.017448481172 0
          7.7340979576 -0.040639389306 0 6.8019762039 0.22061005235 0
          2.3784844875 -0.012273255736 0 7.2552757263 -0.034006070346 0
          7.5549354553 0.15037643909 0 0 0 0
          2.9784662724 -0.025672158226 0 3.4676301479 0.0073302160017 0
          2.8634798527 0.035277038813 0 4.5123505592 -0.047509774566 0
          6.4250264168 0.023518897593 0 6.9781427383 0.27561452985 0
          2.7025306225 0.035872928798 0 5.4264473915 -0.014254739508 0
          4.594637394 -0.0036172783002 0 3.6368563175 -0.014133357443 0
          5.4884915352 0.027518391609 0 7.6487865448 -0.0078952815384 0
          3.5476894379 -0.0028085759841 0 7.7631340027 0.052776895463 0
          5.8824281693 0.086324095726 0 1.7394113541 -0.024474406615 0
          7.2015018463 0.23709341884 0 2.6570391655 0.040770046413 0
          7.0690512657 0.075733050704 0 2.5115356445 -0.039351277053 0
          6.1623783112 0.18050551414 0 4.4793777466 -0.039682738483 0
          2.6642673016 0.031810767949 0 6.527785778 0.23997035623 0
          3.5415320396 -0.01216445677 0 6.0899748802 0.093791477382 0
          7.8405070305 0.0061423466541 0 7.4738650322 0.072355493903 0
          7.4749732018 0.12975214422 0 2.0482120514 -0.0041305813938 0
          0 0 0 2.4481570721 -0.025176534429 0
          2.6821079254 0.030228829011 0 6.7256093025 0.24344064295 0
          1.8774096966 -0.053238566965 0 3.5806286335 -0.017888132483 0
          1.9877676964 0.018092989922 0 5.5878515244 0.07816054672 0
          4.5373249054 0.010749767534 0 5.0248036385 0.046502415091 0
          7.7601518631 0.043471928686 0 1.9681426287 0.015442765318 0
          7.6963214874 0.015575185418 0 4.3935174942 -0.00595197035 0
          2.6939778328 0.0177816879 0 5.4602565765 0.12090497464 0
          6.9486804008 0.1942769587 0 1.7231551409 -0.015412798151 0
          5.831389904 0.1890809536 0 6.9889469147 0.16724593937 0
          1.8976153135 0.016076918691 0 7.3088269234 0.18223696947 0
          3.5509114265 -0.008186403662 0 3.6131362915 -0.0081652039662 0
          1.8562008142 0.019989354536 0 6.124417305 0.20707504451 0
          6.5298304558 0.21687568724 0 2.6540031433 0.014920304529 0
          7.7745695114 -0.037783216685 0 7.5887928009 0.13776259124 0
          7.2805957794 0.038008064032 0 0 0 0
          0 0 0 0 0 0
          0 0 0 2.4638254642 -0.028815926984 0
          1.8199962378 0.011082849465 0 0 0 0
          6.4057168961 0.17007875443 0 2.7091805935 0.0061788172461 0
          4.0564918518 0.024867210537 0 5.4307727814 0.085704579949 0
          3.5383074284 0.0015315044438 0 4.5535511971 0.081304483116 0
          4.423476696 -0.00094366836129 0 0 0 0
          5.0700879097 0.12226104736 0 7.6816735268 0.017624765635 0
          7.3689622879 0.25774055719 0 1.7880035639 0.0061671771109 0
          7.5133113861 -0.095232546329 0 1.6623176336 -0.019098209217 0
          3.5000030994 -0.02284424752 0 5.429204464 0.16696958244 0
          6.7158107758 0.064180538058 0 0 0 0
          6.2761263847 0.19795490801 0 7.1039505005 0.31457194686 0
          0 0 0 5.7580895424 0.14818057418 0
          1.6831902266 0.0070722098462 0 0 0 0
          7.0387501717 -0.074028119445 0 7.5941801071 -0.15203812718 0
          2.5943362713 0.018957227468 0 7.5102381706 0.12002392858 0
          2.4672653675 -0.042885962874 0 3.7013335228 0.0377356112 0
          0 0 0 6.0855050087 0.080879025161 0
          4.7481770515 0.10254699737 0 4.0863003731 0.091258205473 0
          1.7432844639 0.0030926777981 0 4.3277411461 -0.019157987088 0
          2.9610788822 0.02469820343 0 1.6167604923 -0.031803056598 0
          7.4802441597 -0.10369699448 0 0 0 0
          7.2729043961 -0.22132372856 0 7.3416867256 0.23509734869 0
          5.0156383514 0.12058486044 0 6.3187155724 0.16587527096 0
          3.5565805435 -0.055986795574 0 6.4351911545 -0.042891025543 0
          5.397415638 0.041677620262 0 7.0378246307 0.2967993319 0
          5.3770256042 0.076987110078 0 0 0 0
          7.4077835083 -0.25761598349 0 1.4314694405 0.014410491101 0