<?xml version="1.0"?>
<VTKFile type="PolyData" version="0.1" byte_order="LittleEndian" compressor="vtkZLibDataCompressor">
  <PolyData>
    <Piece NumberOfPoints="1041" NumberOfVerts="0" NumberOfLines="0" NumberOfStrips="0" NumberOfPolys="1940">
      <PointData>
        <DataArray type="Float32" Name="PRESSURE" format="ascii" RangeMin="-7.0287342072" RangeMax="0.69280523062">
          0 0.50715869665 0 0.35732161999 0.53718590736 0
          0.3974032104 0.15264955163 0.65212887526 0.37602561712 0.66998827457 0
          0.1951815486 0.075766302645 0.69280523062 0.43862327933 0.65063226223 0
          0.42853587866 0.17498333752 0.28787556291 0.52514499426 0.098597384989 0.43629184365
          0 0.3162458837 0.19542200863 0.44682103395 0.11923614144 0.41070738435
          0.056650016457 0.21558107436 0 0.33767184615 0.25259640813 0.18031300604
          0.16568082571 0.3230920434 0.10397044569 0.32510608435 0.28113329411 0.054339773953
          0.26027643681 0 0.25222295523 0.2523945272 0.20005536079 0.28258055449
          0.17247790098 0.13403405249 0.35981270671 0.083772234619 0.040439762175 0.35835111141
          0.16837222874 0.24626429379 0.14206390083 0.44371369481 0 0.19495476782
          0.17996048927 0.10461424291 0.20979931951 0.21660263836 0.064636200666 0.30512228608
          0.031327400357 0.15231764317 0.14256626368 0.15857464075 0.092584952712 0.12282420695
          0.22133155167 0 0.11448167264 0.16673225164 0.21184429526 0.13965858519
          0.062402289361 0.14199151099 0.14599144459 0.029508009553 0.11129707843 0.14150726795
          0.13165147603 0.11345413327 0.13613200188 0.13789883256 0 0.04763540253
          0.081706315279 0.1101315096 0.041325859725 0.10074781626 0.02211173065 0.068049408495
          0.03783961013 0.026027861983 0.054570283741 0.10255429149 0.12733997405 0.12326175719
          0.13228006661 -0.066617742181 -0.016153138131 0.10198304802 -0.0075107207522 0
          0.053539186716 -0.19864705205 -0.091536298394 0.098985657096 -0.037204131484 -0.29814752936
          0.021742021665 0.11509328336 0.08630412817 0.12914954126 0.11392454803 -0.13463321328
          -0.16166178882 -0.25162833929 0.040303777903 0.057917710394 -0.44648486376 0
          -0.3894687891 -0.035883456469 0.10169763863 -0.57601833344 -0.30516791344 0.034331124276
          0.085942469537 -0.13726389408 0.12224594504 -0.16831803322 0.029542502016 0.075689658523
          0.10524497181 -0.036717820913 -0.4171051681 0 -0.52142870426 -0.49840974808
          0.067806892097 0.12635633349 -0.15582345426 -0.25275307894 0.0087074646726 0.10789325088
          0.078758224845 -0.82066881657 0.039052866399 -0.40989586711 0.096979901195 -0.066812753677
          0.12260261923 -0.63908272982 -0.16515508294 -0.80978089571 0 0.10225757211
          -0.27951964736 0.077670261264 -0.65396559238 -0.60317498446 -0.45555087924 -1.5344488621
          0.13219688833 -0.75354111195 0.030579537153 -0.034786816686 -0.41648349166 0.10541435331
          -0.59714442492 0.1222865656 -0.74173170328 -0.18641425669 0.0099786436185 -0.84786957502
          0 -0.74727201462 0.094939850271 -0.30000811815 -0.41816487908 -0.87229388952
          -0.57302963734 0.11575544626 0.13544368744 -0.82799708843 -0.75571680069 0.03686311096
          0.059288207442 -0.92680972815 -0.55880665779 0.13345105946 0.12069468945 -0.10785638541
          -0.75172358751 -0.96010553837 -0.19513660669 0.14072291553 -0.31412747502 -0.94876408577
          0 -0.80874413252 -0.039538878947 -0.96604681015 0.082620441914 -1.0271948576
          -0.73392528296 0.12408096343 -0.46326723695 -0.56159585714 -1.0606286526 0.1669601351
          -0.97484111786 -1.132157445 0.069544017315 -0.13012655079 0.028475262225 -0.23658904433
          0.12889771163 0.12611550093 0.14425368607 -0.70984297991 -1.1767386198 -0.32267582417
          -0.96733361483 -0.92207443714 0 -0.74669623375 0.16572912037 -0.60701918602
          -0.097661614418 -1.1150945425 -1.1954064369 0.14394657314 -0.45335167646 0.066665753722
          -1.2512080669 -0.91467243433 -0.72505408525 -1.3457331657 -1.2162846327 0.14942753315
          -0.58665543795 -0.91059416533 -0.22945167124 0.20868219435 0.055326208472 -0.015276756138
          -0.38744309545 -1.3909957409 0.10739351064 0.23785997927 -0.90547794104 -0.47300198674
          -1.1393822432 -1.1667772532 -0.73316723108 -0.99018317461 0 0.18780691922
          0.33122071624 0.05867677182 -1.4639997482 -0.60428500175 0.23368728161 -0.20449908078
          -1.4793729782 -1.3975428343 -1.5160702467 -1.1350576878 0.16019243002 -0.90712410212
          -0.35999402404 -1.2409911156 -0.75477105379 0.32403278351 -1.4275165796 0.2751519382
          -0.53027951717 -0.058919414878 0.28119429946 -0.6346128583 0.062987498939 -1.6725227833
          -1.1135977507 -1.3796314001 -0.93844163418 0 -1.3016654253 -1.3990234137
          0.2135964483 -0.78163766861 0.40074035525 0.069462373853 0.47608467937 -1.7328416109
          -1.6483539343 -0.40216135979 -1.3331567049 0.47849163413 -1.1404987574 -0.14003565907
          0.18858343363 -0.4826592803 -1.6654700041 -1.4964594841 -0.66726255417 -0.98190820217
          0.32039546967 -1.6558666229 -1.6197324991 -0.11431606859 0.24339219928 -0.8089106679
          -1.7857513428 0.06517354399 -1.3477145433 -1.5800484419 -1.197104454 0
          -1.4952967167 0.2918151319 0.33381524682 -1.6280921698 0.155097574 0.54502952099
          -1.0036833286 0.034474950284 -0.33808201551 -1.8378074169 -0.17009170353 -0.55497187376
          -1.7900145054 0.44858711958 -0.69673353434 -1.5488557816 -1.7539453506 0.16920924187
          -1.3995183706 -1.6986818314 -1.7911864519 -0.82068789005 -1.2348759174 0.32005733252
          -1.8549710512 -1.8511424065 0.23679219186 -1.0160956383 -0.010017698631 -1.7126010656
          -1.4579643011 -1.5978088379 -0.17913649976 -1.7042737007 -1.8272378445 -0.32599213719
          0.18177987635 -1.23972404 -0.79221308231 -0.73502218723 0.069206401706 -1.9578201771
          -0.49387532473 -1.9310641289 -1.6997023821 0.15480206907 -1.6427435875 -1.8654516935
          -0.98439610004 -1.9232993126 -1.9678995609 -1.481061697 -1.9826463461 -1.9579012394
          -1.2115858793 0.056003127247 -1.7392494678 -0.13485923409 -1.9762570858 -1.6898943186
          -2.0092673302 -1.8346881866 -0.60248190165 -0.82574361563 -1.4324433804 -1.955720067
          -2.0934474468 -0.95345073938 -0.50798839331 0.20400440693 -2.0183222294 -2.169025898
          -1.6003972292 -1.8556286097 -1.7873311043 -1.1515786648 -1.9335049391 -2.0287296772
          -2.1460094452 -0.69692265987 -0.38833519816 -1.3825243711 -2.1123039722 -2.0435345173
          -2.1673316956 -1.8464686871 -2.2424082756 -0.74016928673 -1.9480756521 -0.81828474998
          -1.780392766 -1.6241931915 -0.97883504629 -0.60332781076 -2.057754755 -1.0871589184
          -2.1833844185 -2.2721068859 -2.3423395157 -1.9369416237 -2.3665926456 -1.8689359426
          -1.267256856 -2.063952446 -2.1317913532 -0.63809585571 -0.86137247086 -1.6015281677
          -1.4965149164 -2.3702156544 -2.2001402378 -2.3930113316 -1.0103083849 -1.9471032619
          -2.5022251606 -2.4996788502 -2.0556528568 -1.720671773 -1.1433763504 -2.2329895496
          -1.0514148474 -2.3680715561 -2.6129050255 -2.0298750401 -1.8459988832 -2.6464030743
          -1.921449542 -2.2356057167 -2.3666417599 -0.82248544693 -0.92147946358 -1.3872941732
          -2.7486672401 -1.6044771671 -0.90450644493 -2.6794900894 -2.6984810829 -2.1876888275
          -2.0077092648 -2.627979517 -2.4240932465 -1.1563886404 -2.6378746033 -2.4048216343
          -1.7848044634 -2.9621989727 -0.99925643206 -1.9237750769 -2.1474733353 -2.9580492973
          -1.9867777824 -0.84820848703 -2.6372032166 -2.3985698223 -1.6351072788 -2.958460331
          -3.0091090202 -3.029150486 -3.0555126667 -2.0966730118 -0.69001168013 -1.4251418114
          -2.9318406582 -2.6554965973 -2.3872025013 -3.2436592579 -2.9391512871 -1.2492411137
          -3.2519416809 -2.6197843552 -1.9852740765 -2.0533413887 -1.822682023 -3.2950105667
          -2.1045048237 -0.98014646769 -2.9210042953 -2.3605074883 -1.6673005819 -3.2490332127
          -3.2787406445 -3.4069387913 -2.6401102543 -3.4612214565 -1.4762355089 -3.2768890858
          -2.849460125 -3.5351760387 -3.5590741634 -1.2714672089 -1.8231198788 -3.2878613472
          -2.6828522682 -2.429299593 -2.0666329861 -2.1475389004 -2.8638396263 -3.6072862148
          -2.3211643696 -1.7899008989 -3.604408741 -3.6027491093 -3.2342269421 -3.7563128471
          -2.7052600384 -2.9378905296 -1.4999241829 -3.5872547626 -2.4993510246 -3.815472126
          -3.8462438583 -2.0847468376 -3.1902186871 -3.9201431274 -3.4814178944 -2.4617664814
          -2.0149688721 -3.0125520229 -2.7358291149 -3.9306192398 -3.2225043774 -2.337167263
          -3.8941771984 -1.8947697878 -3.9329106808 -3.9745461941 -3.0480763912 -3.3043766022
          -4.0294961929 -2.8019137383 -2.2840559483 -2.1454939842 -3.7586505413 -4.1783337593
          -4.0997376442 -3.4588136673 -4.150308609 -2.0050742626 -4.154774189 -3.3692743778
          -3.6260809898 -3.0523347855 -3.5427246094 -2.7186434269 -4.1112561226 -2.4976093769
          -4.1451039314 -4.0415306091 -3.3616425991 -2.3765029907 -4.2923049927 -3.1030950546
          -3.6698286533 -2.125731945 -4.2695908546 -4.2593054771 -3.6846957207 -3.865855217
          -4.2609701157 -3.6379175186 -3.3418295383 -4.1918554306 -2.8292891979 -3.8592228889
          -4.2407779694 -2.6657650471 -4.0643491745 -3.7943375111 -2.4712150097 -4.126147747
          -4.2886195183 -3.8999724388 -4.37454319 -3.1725976467 -4.2516083717 -3.6975336075
          -3.9724197388 -4.2124042511 -3.9328687191 -3.795170784 -4.1294484138 -3.9169232845
          -3.5961968899 -2.921987772 -4.0002593994 -3.1278522015 -4.1127352715 -2.6662123203
          -4.1046361923 -3.8646316528 -4.0036020279 -3.7905995846 -4.1305141449 -4.1261482239
          -3.8960504532 -3.7287757397 -4.054599762 -3.5534083843 -4.1496152878 -3.9031398296
          -3.3572537899 -3.9714374542 -4.0408921242 -3.6869840622 -3.2576537132 -3.8471758366
          -2.9783675671 -4.1284503937 -3.7686061859 -3.8369460106 -4.0339255333 -3.7252686024
          -3.9059455395 -3.9952600002 -3.9862389565 -4.1849908829 -3.6297278404 -3.8454537392
          -3.8542249203 -3.7618358135 -3.5715153217 -3.6814525127 -3.5158126354 -4.2295322418
          -4.1051826477 -3.6362752914 -3.3046219349 -3.9918675423 -3.6100018024 -3.5508539677
          -4.2316656113 -3.7600533962 -3.5460700989 -3.7812292576 -3.6487700939 -4.0085535049
          -3.6674790382 -3.6349241734 -4.0975861549 -3.5615406036 -3.4984228611 -3.7365524769
          -3.4642019272 -3.8526263237 -3.5656585693 -4.1945180893 -3.7400519848 -3.4707810879
          -3.564391613 -4.1702156067 -3.4147377014 -3.4950397015 -3.8245215416 -3.4431812763
          -3.6022918224 -3.4631559849 -4.2089114189 -3.5097093582 -3.3945174217 -3.4483134747
          -4.033100605 -3.5516867638 -3.9177987576 -3.4556603432 -3.9233624935 -3.5004041195
          -3.7335782051 -3.3152699471 -3.5788180828 -4.1710553169 -3.5070490837 -3.4354074001
          -4.0061211586 -3.3559470177 -3.6196780205 -3.3326299191 -3.4675204754 -3.4253890514
          -3.2504973412 -3.4686491489 -4.1165680885 -3.4253222942 -4.102227211 -3.9115695953
          -3.4539501667 -3.3608527184 -4.1039247513 -3.7060348988 -3.4072463512 -3.2840311527
          -3.4380166531 -3.4151625633 -4.0689682961 -3.3911311626 -3.3946228027 -3.3251929283
          -3.8394334316 -4.2013707161 -3.4471054077 -4.0505361557 -3.3856151104 -3.366966486
          -3.3582372665 -3.2902867794 -3.3562910557 -3.9752008915 -4.1429123878 -3.3524134159
          -3.3741354942 -3.3174493313 -3.3452587128 -3.5468912125 -3.3773617744 -3.3473031521
          -3.3799057007 -3.3707816601 -3.358789444 -3.9274735451 -4.1533360481 -3.3340713978
          -3.6734843254 -3.3598015308 -3.3059475422 -3.2871825695 -3.3188922405 -3.3116462231
          -4.2077555656 -3.7859566212 -3.3760905266 -3.2995564938 -3.4694955349 -3.3502857685
          -3.4212191105 -3.4315559864 -3.3196864128 -3.3697805405 -3.4018366337 -3.3846981525
          -4.1312942505 -3.4469099045 -3.7957806587 -3.3558177948 -3.3647353649 -3.3218529224
          -3.2402582169 -3.3449440002 -3.2559323311 -3.5213196278 -3.3924760818 -3.5055177212
          -3.3770666122 -3.4599504471 -3.6387212276 -3.4585473537 -3.4077186584 -3.7124934196
          -3.2577424049 -3.3940169811 -3.3286764622 -3.4428162575 -3.5326788425 -3.4492797852
          -3.4507057667 -3.3637406826 -3.1722040176 -3.1616008282 -3.4338366985 -3.45657444
          -3.4493641853 -3.4308395386 -3.4889864922 -3.3412837982 -3.4583098888 -3.5765380859
          -3.4933383465 -3.4580588341 -3.4791662693 -3.4482018948 -3.1687617302 -3.2169952393
          -3.4821200371 -3.4796102047 -3.4072830677 -3.381221056 -3.2768015862 -3.4826393127
          -3.0393767357 -3.2553844452 -3.4952764511 -3.0661301613 -3.3640089035 -3.434330225
          -3.4593009949 -3.4361228943 -3.556946516 -3.4324409962 -3.4180159569 -3.0522515774
          -3.4350636005 -3.0950810909 -3.409665823 -3.5036177635 -3.3705122471 -3.4840354919
          -3.1588299274 -2.9577357769 -3.1898608208 -3.3653128147 -2.9450242519 -3.3544001579
          -3.3711013794 -3.411053896 -3.4585011005 -3.3054373264 -3.4443969727 -3.3630127907
          -3.3425676823 -2.9330112934 -2.8946743011 -3.4213604927 -3.3796672821 -3.29205966
          -3.1651582718 -2.9161353111 -3.2743673325 -3.3583083153 -3.3831973076 -3.1903717518
          -3.3475289345 -2.8378973007 -2.7952203751 -3.2725558281 -3.2577457428 -3.2896785736
          -3.3016347885 -3.1731543541 -2.7874336243 -3.3104321957 -2.6711912155 -3.2660448551
          -2.8679642677 -3.2120115757 -3.2535748482 -3.2496869564 -3.0406694412 -3.2698323727
          -3.2996816635 -3.2737417221 -3.1393270493 -3.1812193394 -2.6944067478 -3.1850781441
          -2.6013400555 -2.5925319195 -3.1147208214 -3.1911330223 -3.1939508915 -2.446346283
          -2.7031543255 -3.0414361954 -3.1962857246 -2.7617769241 -3.1387507915 -3.2077031136
          -2.977874279 -3.1438763142 -3.1091325283 -3.061262846 -2.9967362881 -2.7428686619
          -3.1531219482 -3.0884282589 -3.0816166401 -2.9371316433 -2.6363196373 -3.0789597034
          -2.5649371147 -3.0054752827 -2.5208203793 -2.9397530556 -3.0815975666 -2.6431057453
          -3.1119813919 -2.9816362858 -3.0560643673 -2.9797902107 -2.882329464 -2.9652936459
          -2.9666118622 -3.0773384571 -2.7896258831 -3.0869140625 -2.9096126556 -2.8219778538
          -2.8403756618 -3.2555484772 -3.0021932125 -2.9859871864 -2.7657837868 -3.4814026356
          -2.9350609779 -2.7181265354 -2.9163422585 -2.7259595394 -2.9328308105 -2.8091671467
          -2.7603237629 -2.8994407654 -3.7064824104 -2.5842251778 -2.8912189007 -3.9477641582
          -2.7697882652 -4.0163764954 -2.5253624916 -3.9568688869 -2.8219225407 -2.8513746262
          -3.3840882778 -4.083117485 -2.7841908932 -2.5845003128 -2.5935130119 -2.6213347912
          -2.9790756702 -2.5038216114 -2.8347043991 -3.0069620609 -2.7892053127 -4.1810250282
          -2.4523041248 -2.8771233559 -2.408539772 -4.4711709023 -4.3100318909 -4.6407704353
          -2.7655608654 -4.2323474884 -2.7128038406 -4.460205555 -2.5667877197 -2.6899847984
          -3.7740206718 -2.3209295273 -2.7929997444 -2.6371212006 -3.3901469707 -2.8038175106
          -3.1861987114 -2.96946311 -2.6660821438 -4.2384185791 -3.2221295834 -3.0805842876
          -4.1827507019 -1.9022351503 -4.1768784523 -4.0490298271 -2.7480208874 -3.9426019192
          -2.907371521 -3.390444994 -2.6260695457 -4.8224639893 -3.3422260284 -5.6821174622
          -3.1241066456 -3.1630291939 -3.8769023418 -3.62393713 -1.772393465 -3.4629752636
          -2.8637337685 -4.1944637299 -4.1115136147 -4.1505088806 -4.0098161697 -3.8428075314
          -3.8788962364 -3.1230432987 -3.8025884628 -2.9008512497 -4.8469142914 -3.4637303352
          -7.00151968 -1.8706935644 -4.5489764214 -4.015068531 -6.4160928726 -1.4053957462
          -3.6327881813 -4.5868029594 -1.4904015064 -5.7175307274 -2.7720012665 -4.4521431923
          -3.6711382866 -4.8439245224 -1.5462664366 -4.0715675354 -1.4326323271 -3.9269385338
          -4.3221898079 -6.4342212677 -4.1295585632 -7.0287342072 -4.1460142136 -4.2319545746
          -4.1773939133 -4.821805954 -3.815046072 -4.1899495125 -3.8773393631 -4.2608785629
          -4.0093817711 -4.1555128098 -4.2081956863
        </DataArray>
        <DataArray type="Float32" Name="VELOCITY" NumberOfComponents="3" ComponentName0="X-VELOCITY" ComponentName1="Y-VELOCITY" ComponentName2="Z-VELOCITY" format="ascii" RangeMin="0" RangeMax="8.2953834534">
          0 0 0 0 0 0
          3.6982762814 0.020597817376 0 5.0984215736 0.16105921566 0
          3.6146862507 0.15262708068 0 5.6657700539 0.20951774716 0
          0 0 0 5.6155638695 0.078403837979 0
          4.0745368004 0.07638630271 0 5.4598641396 0.072529248893 0
          0 0 0 5.5916752815 0.088400751352 0
          5.5541095734 0.064324989915 0 5.4629802704 0.060986530036 0
          4.0670170784 0.030248394236 0 5.541519165 0.06009971723 0
          0 0 0 5.3875975609 0.057221446186 0
          5.2893929482 0.04306383431 0 5.290409565 0.017485270277 0
          5.3994832039 0.0077796345577 0 4.022134304 -0.0051030996256 0
          5.2634415627 0.015041238628 0 0 0 0
          5.2571954727 0.017533449456 0 5.4782981873 -0.019262846559 0
          5.17263937 -0.045451890677 0 5.2744455338 -0.024190420285 0
          5.2150707245 -0.031544543803 0 4.0818967819 -0.0018026264152 0
          5.2551441193 -0.0075474139303 0 5.1241369247 -0.091810330749 0
          5.3032560349 0.0018981681205 0 0 0 0
          5.1733455658 -0.095321752131 0 5.2198553085 -0.089032933116 0
          5.25872612 -0.058895904571 0 5.4686141014 -0.072539694607 0
          5.3074193001 -0.030385833234 0 5.2174954414 -0.029589189216 0
          4.0836639404 0.004855715204 0 5.3435645103 -0.0070196930319 0
          0 0 0 5.36541605 0.0070665767416 0
          5.1251802444 -0.16625472903 0 5.0432829857 -0.16157470644 0
          5.230474472 -0.14459905028 0 5.3911447525 -0.11678098142 0
          5.2994823456 -0.10873166472 0 5.3407115936 -0.065798647702 0
          5.1775660515 -0.055296160281 0 5.3596143723 -0.032930020243 0
          5.3659477234 -0.0099974991754 0 4.0392804146 0.021643543616 0
          5.3423342705 -0.145795241 0 5.2996692657 -0.16044083238 0
          5.3882508278 -0.093767568469 0 0 0 0
          5.3715276718 0.0027487922926 0 4.9475235939 -0.2386174947 0
          5.2886357307 -0.20938110352 0 5.3965964317 -0.047494035214 0
          5.1405792236 -0.26749840379 0 5.0120425224 -0.081760771573 0
          5.3924837112 -0.016394421458 0 3.7215261459 -0.0095317298546 0
          5.3857002258 0.0010342804017 0 5.4415426254 -0.1206901744 0
          5.0873908997 -0.32106775045 0 5.4230623245 -0.18729574978 0
          5.4164261818 -0.028392380103 0 5.436293602 -0.063066422939 0
          0 0 0 5.3792352676 0.011843865737 0
          5.1738390923 -0.19344508648 0 5.3847980499 -0.25905013084 0
          4.9148774147 -0.10909929127 0 4.833925724 -0.32420954108 0
          5.399503231 -0.0024370350875 0 5.3018741608 -0.31753128767 0
          3.7421548367 -0.031918954104 0 5.3859910965 0.012242495082 0
          5.4528121948 -0.033551763743 0 5.5138568878 -0.14844541252 0
          5.4860839844 -0.076133966446 0 5.1632127762 -0.37369781733 0
          5.5243897438 -0.21640327573 0 0 0 0
          5.3799595833 0.01721595414 0 5.0636744499 -0.24176889658 0
          5.4258432388 0.0051850439049 0 5.4998235703 -0.29640734196 0
          4.7915234566 -0.13625878096 0 4.9990339279 -0.40310010314 0
          4.7105083466 -0.35427379608 0 5.4133281708 -0.36452561617 0
          3.6590514183 -0.041224271059 0 5.3878483772 0.02447129041 0
          5.4040374756 0.025830026716 0 5.4638786316 0.013426004909 0
          5.5118913651 -0.01357067097 0 5.6187458038 -0.13439460099 0
          5.5670013428 -0.056928440928 0 4.9439749718 -0.29444402456 0
          5.3014864922 -0.41985625029 0 5.6605992317 -0.21411985159 0
          0 0 0 5.374835968 0.027673611417 0
          5.6419358253 -0.294808954 0 4.6602597237 -0.16687682271 0
          5.0264520645 -0.46621242166 0 5.4327492714 0.04799298197 0
          5.6043348312 -0.35337460041 0 3.578496933 -0.07965092361 0
          5.3721604347 0.037684429437 0 5.6672244072 -0.027481110767 0
          5.7487249374 -0.11422915012 0 5.5933914185 0.032266154885 0
          5.496573925 0.06720136106 0 4.5740523338 -0.41418766975 0
          5.4974346161 -0.40148770809 0 4.7988443375 -0.26968285441 0
          5.8143558502 -0.18810369074 0 5.3825311661 0.056614868343 0
          0 0 0 5.3571715355 0.034024592489 0
          4.5755867958 -0.17643752694 0 5.8206543922 -0.25695228577 0
          5.4338040352 0.094524048269 0 3.7754182816 -0.048818323761 0
          5.2654013634 -0.45219087601 0 5.3589615822 0.048527169973 0
          5.7772760391 0.025793379173 0 5.809006691 -0.29485997558 0
          5.6877789497 0.091185681522 0 4.4725637436 -0.42022848129 0
          5.8984055519 -0.046834684908 0 5.3831253052 0.087317049503 0
          5.5538573265 0.13710036874 0 5.9927005768 -0.11638536304 0
          0 0 0 5.3620696068 0.033827535808 0
          4.91319561 -0.46416351199 0 4.6571717262 -0.2193415761 0
          5.3591785431 0.070256069303 0 5.4587798119 0.15010465682 0
          6.0238261223 -0.17197340727 0 5.872273922 -0.2996776998 0
          5.9068684578 0.072531290352 0 5.3850851059 0.13532182574 0
          5.7788228989 0.15627858043 0 3.5543220043 -0.10517156869 0
          5.3634738922 0.04823923856 0 5.5895466805 -0.38159406185 0
          5.3613176346 0.10269779712 0 6.0495753288 0.027287738398 0
          5.4838080406 0.21284508705 0 4.4368391037 -0.48275318742 0
          6.145585537 -0.051476933062 0 0 0 0
          5.3684225082 0.027617661282 0 5.5943660736 0.24473361671 0
          6.1545314789 -0.13603831828 0 5.3592576981 0.070891067386 0
          5.4277696609 -0.39413323998 0 4.4745950699 -0.057526275516 0
          5.9757657051 -0.27567014098 0 3.2897996902 -0.082100629807 0
          5.3751220703 0.20921316743 0 4.1695728302 -0.37873828411 0
          5.3403968811 0.04063373059 0 5.9487509727 0.19587962329 0
          6.1755542755 -0.17793537676 0 5.3348903656 0.098689205945 0
          5.8543925285 -0.34356102347 0 5.3461909294 0.14500795305 0
          4.4901547432 -0.40733322501 0 6.1565899849 0.097606569529 0
          5.6702899933 0.3213493228 0 0 0 0
          5.287686348 0.035258758813 0 5.151491642 -0.38440316916 0
          5.4021692276 0.29381275177 0 6.2749047279 0.0075910715386 0
          6.2977743149 -0.074665777385 0 4.4130644798 0.078317187726 0
          6.2002148628 -0.24488466978 0 5.2719187737 0.063873052597 0
          5.3103003502 0.19247162342 0 3.8434419632 -0.30997863412 0
          5.6977181435 -0.38533845544 0 5.2549071312 0.039406921715 0
          5.4524497986 0.36519542336 0 4.2846012115 -0.38213413954 0
          6.3432421684 -0.15360656381 0 5.2405781746 0.11642500758 0
          5.2959074974 0.27017620206 0 5.7760734558 0.3447470963 0
          6.0997262001 -0.33483472466 0 4.8680148125 -0.41799676418 0
          6.0305991173 0.2365719825 0 5.2316856384 0.16297592223 0
          6.2111206055 0.1360116154 0 0 0 0
          5.3162474632 0.0024068597704 0 3.6164925098 0.11012678593 0
          5.489587307 0.40878874063 0 5.467757225 -0.4142794013 0
          5.2901601791 0.34449261427 0 3.7747635841 -0.23237146437 0
          6.3602204323 -0.26444560289 0 5.2503638268 0.04635932669 0
          6.3688564301 0.054032046348 0 6.4172525406 -0.038324091583 0
          3.9606370926 -0.29526606202 0 5.190299511 0.20683421195 0
          5.9515686035 -0.39062339067 0 4.5142874718 -0.39115267992 0
          5.3721661568 -0.001203344902 0 5.5288553238 0.40903502703 0
          5.274720192 0.40005028248 0 5.7750730515 0.34952330589 0
          5.2383174896 0.060189899057 0 5.1543622017 0.2802310884 0
          5.155819416 0.095013074577 0 6.512594223 -0.13936854899 0
          5.1898112297 -0.40513834357 0 6.0215725899 0.25220310688 0
          6.3179984093 -0.34645411372 0 3.5508327484 -0.077695332468 0
          5.5052447319 -0.023167869076 0 0 0 0
          5.0819740295 0.1602089107 0 6.4545145035 0.065257973969 0
          5.2822599411 0.4409044683 0 3.7031917572 -0.21827679873 0
          5.7391805649 -0.39628368616 0 5.4835987091 -0.018834514543 0
          6.2015123367 0.18544428051 0 5.1033191681 0.34321609139 0
          4.125269413 -0.3428221643 0 6.5666418076 -0.24864004552 0
          6.5521879196 0.0022604605183 0 4.8539323807 -0.37077212334 0
          6.1867055893 -0.37205463648 0 5.0253534317 0.20134732127 0
          6.3519968987 0.15907457471 0 3.5016355515 -0.038779746741 0
          5.4058990479 0.43372690678 0 5.4366927147 0.072580814362 0
          5.6019787788 -0.0094133550301 0 5.0660405159 0.39990052581 0
          5.6598215103 0.36932638288 0 5.490875721 -0.36400049925 0
          4.9537830353 0.25044327974 0 5.4162597656 0.072397604585 0
          6.7001485825 -0.09725844115 0 5.9893307686 0.2731411159 0
          3.4429652691 -0.16291894019 0 6.5486240387 -0.29754602909 0
          6.5132918358 0.15041773021 0 0 0 0
          5.6733422279 -0.1290640831 0 5.3799996376 0.10561747849 0
          5.6474261284 -0.012131509371 0 4.8565387726 0.30678036809 0
          6.002802372 -0.33454054594 0 6.1911287308 0.25087112188 0
          5.4985246658 0.005240471568 0 5.0410165787 0.45811662078 0
          4.4979195595 -0.31950613856 0 3.6885309219 -0.28616502881 0
          5.2501568794 -0.31972756982 0 6.7916264534 -0.18080480397 0
          5.2913022041 0.15538868308 0 6.7045416832 0.095073156059 0
          5.3018078804 0.44174385071 0 3.3473527431 -0.054421618581 0
          6.377199173 0.26677301526 0 5.433113575 0.012368634343 0
          6.4800653458 -0.25850307941 0 5.1253237724 -0.071938149631 0
          5.556907177 0.38267970085 0 4.7572808266 0.36393079162 0
          5.4221878052 0.062849290669 0 5.9274249077 0.31807923317 0
          5.1954436302 0.19834238291 0 5.7546343803 -0.265807271 0
          6.9055228233 -0.0026856809855 0 6.7765169144 -0.18603236973 0
          6.5788187981 0.26124241948 0 4.1525354385 0.044703777879 0
          0 0 0 3.3128108978 -0.17211176455 0
          5.3900227547 0.072438292205 0 6.126019001 0.34012573957 0
          3.7787694931 -0.13817708194 0 5.0842819214 0.21694396436 0
          4.0709910393 -0.030540525913 0 5.325674057 -0.24871370196 0
          4.4233107567 -0.28335633874 0 4.8134570122 0.45306417346 0
          7.0131092072 -0.065703928471 0 4.1170649529 0.03080213815 0
          6.8173189163 0.18437772989 0 4.6266970634 0.38117155433 0
          5.3261432648 0.084919467568 0 5.1147198677 0.42619353533 0
          6.4414043427 -0.13946996629 0 3.2429909706 -0.059061188251 0
          5.4052381516 0.40770530701 0 6.3378772736 0.36339622736 0
          4.0179738998 0.016735406592 0 6.7384572029 -0.10076376051 0
          3.5449545383 -0.25755220652 0 4.9375782013 0.26928541064 0
          3.9563524723 0.02444232814 0 5.7260704041 0.3775870204 0
          6.1331629753 -0.1017665118 0 5.1970729828 0.10786923021 0
          7.0432190895 0.067108012736 0 7.0030593872 -0.040652226657 0
          6.5689926147 0.323720783 0 0 0 0
          0 0 0 0 0 0
          0 0 0 3.2055501938 -0.18447899818 0
          3.9012885094 0.02249651961 0 0 0 0
          5.9629464149 0.40321555734 0 5.1345434189 0.11155521125 0
          4.482375145 0.36249375343 0 5.1854791641 -0.18422009051 0
          4.8222794533 0.2351911515 0 4.5116267204 0.42487877607 0
          4.3209834099 -0.25120356679 0 0 0 0
          4.9059514999 0.40740060806 0 7.1394863129 0.00482371822 0
          6.871117115 0.033523924649 0 3.8223295212 0.023516636342 0
          6.8313755989 0.19134087861 0 3.0694460869 -0.061086989939 0
          3.4753553867 -0.2370942831 0 5.1637234688 0.41839727759 0
          6.1986503601 0.39007425308 0 0 0 0
          5.9436855316 -0.072944551706 0 6.6506009102 0.066087655723 0
          0 0 0 5.4889421463 0.40840309858 0
          3.5810265541 0.017652502283 0 0 0 0
          6.4577388763 0.29081422091 0 7.0531277657 0.037448208779 0
          4.8883314133 0.16155940294 0 7.0985159874 0.045656684786 0
          3.125266552 -0.19225761294 0 4.4406924248 0.2793007791 0
          0 0 0 5.7430019379 0.41343080997 0
          4.6955718994 0.3675814569 0 4.1965165138 0.43088844419 0
          3.6228995323 0.053757250309 0 4.2274546623 -0.22803303599 0
          4.9333305359 0.22831058502 0 2.9167778492 -0.079418234527 0
          7.1012983322 -0.016877532005 0 0 0 0
          6.714325428 0.10668969154 0 6.9824428558 0.11605301499 0
          4.8588738441 0.42210325599 0 6.003806591 -0.05426620692 0
          3.4728462696 -0.23844443262 0 6.0110607147 0.34373322129 0
          5.1685876846 -0.1614073962 0 6.6390633583 0.099126882851 0
          5.1909942627 0.40501660109 0 0 0 0
          6.9541597366 -0.052407909185 0 2.9725651741 0.049669414759 0
          0 0 0 6.3389048576 0.18497058749 0
          3.0455157757 -0.20226716995 0 7.0415425301 0.012893302366 0
          4.75222826 0.1572778821 0 4.037381649 0.38016930223 0
          5.4813551903 0.37832817435 0 6.8822164536 0.1355701983 0
          4.427157402 -0.23625674844 0 4.358092308 0.34015154839 0
          3.452984333 0.030929857865 0 0 0 0
          5.9779105186 -0.08687363565 0 2.782510519 -0.069700561464 0
          5.7682228088 0.28940081596 0 6.9868512154 -0.094434864819 0
          6.6337351799 -0.011383486912 0 4.5183882713 0.39187690616 0
          6.9389982224 0.064040340483 0 6.5142736435 -0.0055547682568 0
          3.465514183 -0.26092162728 0 3.5789558887 0.042290300131 0