<?xml version="1.0"?>
<VTKFile type="PolyData" version="0.1" byte_order="LittleEndian" compressor="vtkZLibDataCompressor">
  <PolyData>
    <Piece NumberOfPoints="1041" NumberOfVerts="0" NumberOfLines="0" NumberOfStrips="0" NumberOfPolys="1940">
      <PointData>
        <DataArray type="Float32" Name="PRESSURE" format="ascii" RangeMin="-9.964304924" RangeMax="1.2182029486">
          0 1.0977928638 0 0.72242987156 1.0921310186 0
          0.8298984766 0.34585893154 1.1856811047 0.67479896545 1.147564292 0
          0.42594322562 0.17817460001 1.1901937723 0.72750544548 1.2011511326 0
          0.80648386478 0.31471186876 0.49380862713 0.99602347612 0.15675231814 0.92463725805
          0 0.65546643734 0.37418818474 0.78758323193 0.22745506465 0.77343887091
          0.11758645624 0.44185116887 0 0.73517149687 0.51661628485 0.37294086814
          0.2960369885 0.64237457514 0.19731961191 0.64712232351 0.53762590885 0.094778634608
          0.57341390848 0 0.45853835344 0.51110613346 0.39337381721 0.5962511301
          0.32019653916 0.23943354189 0.67185640335 0.15669977665 0.073315270245 0.60601866245
          0.33174788952 0.53766340017 0.27033025026 0.81219547987 0 0.44690814614
          0.381495893 0.2024782449 0.43438526988 0.50241190195 0.12649695575 0.53525942564
          0.060881648213 0.29325601459 0.43276044726 0.33745709062 0.18268054724 0.23934625089
          0.51906776428 0 0.42290332913 0.37272110581 0.5292327404 0.43455964327
          0.12262331694 0.39551281929 0.34673833847 0.059963874519 0.2264406085 0.31383916736
          0.27289199829 0.41074594855 0.34166571498 0.40977677703 0 0.38370019197
          0.17135535181 0.36583259702 0.34245562553 0.43610402942 0.36491730809 0.37870571017
          0.2542513907 0.04739446938 0.11142884195 0.21574597061 0.25646391511 0.32328173518
          0.29284572601 0.312902987 0.37675455213 0.34801074862 0.259236902 0
          0.3643900156 0.10486351699 0.37661904097 0.18443806469 0.37351039052 -0.072823211551
          0.061970796436 0.31377926469 0.33725300431 0.28875136375 0.24708013237 0.38465511799
          0.34937289357 0.26228433847 0.35543233156 0.12828744948 -0.19367302954 0
          0.0033549650107 0.36888873577 0.2282988131 -0.22485879064 0.34535115957 0.072386704385
          0.32749098539 0.3707421422 0.31335499883 0.43803790212 0.34537091851 0.19067725539
          0.29091072083 0.3596689105 0.078433334827 0 0.27643042803 0.18165941536
          0.14603367448 0.27141654491 0.37910914421 0.3846693337 0.34358051419 0.2510317862
          0.33196979761 -0.32282543182 0.085212156177 0.38990300894 0.21662211418 0.35375866294
          0.3051289618 0.24882155657 0.36725002527 -0.29046016932 0 0.31922984123
          0.39039483666 0.1739487499 0.32743632793 0.28086346388 0.38042023778 -1.1191933155
          0.31305554509 0.26105320454 0.099339954555 0.35057887435 0.38698220253 0.25447022915
          0.38939186931 0.30020013452 0.41000500321 0.36261373758 0.33347943425 0.18674887717
          0 0.41462352872 0.34183818102 0.37998712063 0.3929489851 0.40058374405
          0.40863379836 0.22048602998 0.35153234005 0.44059455395 0.43181195855 0.11907950789
          0.34523421526 0.39757525921 0.41198018193 0.33299908042 0.36727833748 0.3404379487
          0.43124082685 0.45090788603 0.35659474134 0.37486949563 0.37017008662 0.36639490724
          0 0.7143908143 0.34453755617 0.46308213472 0.36357998848 0.42901864648
          0.43537735939 0.27011841536 0.39330562949 0.41337490082 0.43410563469 0.41189339757
          0.45798787475 0.49373495579 0.12848848104 0.35933721066 0.35704752803 0.34035420418
          0.40054801106 0.40284726024 0.43205887079 0.43572574854 0.50732624531 0.3606158793
          0.46396532655 0.88586241007 0 1.1132694483 0.44680401683 0.41358190775
          0.31150534749 0.66436690092 0.50153326988 0.34751519561 0.37592113018 0.38804039359
          0.60878491402 0.46198442578 0.43359401822 0.56861430407 0.49779996276 0.45240661502
          0.3999042213 1.217210412 0.35193943977 0.54962205887 0.26559633017 0.36017110944
          0.33094829321 0.55191135406 0.4129230082 0.57454657555 0.46059647202 0.35761702061
          0.91395926476 0.49289321899 0.42781528831 1.1372042894 0 0.55307942629
          0.63837718964 0.38482752442 0.53964275122 0.38618949056 0.55135041475 0.29211264849
          0.65699869394 0.76720762253 0.59952682257 0.48899129033 0.52109134197 0.45668917894
          0.32634118199 1.0476084948 0.41781303287 0.70739197731 0.52686029673 0.69384944439
          0.32668605447 0.32829070091 0.69600635767 0.36438083649 0.42366921902 0.58285027742
          0.48482778668 0.51715821028 0.45076015592 0 0.97739946842 0.9318549037
          0.6449572444 0.40433293581 1.0302628279 0.42638254166 1.0281854868 0.63624471426
          0.7089163065 0.20919339359 0.51150161028 0.94615399837 0.48123043776 0.34963685274
          0.61369258165 0.31994503736 0.5674226284 0.98618990183 0.32102462649 0.44276687503
          0.83366060257 0.54872697592 0.81411200762 0.24572488666 0.70303809643 0.3821516037
          0.59948533773 0.47472566366 0.50989985466 0.53914099932 0.47755688429 0
          1.0364466906 0.8985465169 0.85661816597 0.90045571327 0.53778833151 0.93892371655
          0.43114316463 0.44072753191 0.18767236173 0.68041968346 0.23763415217 0.18818676472
          0.74415886402 0.96132880449 0.24476581812 0.53542423248 0.5646225214 0.54661369324
          0.50890803337 0.97280538082 0.81095260382 0.35697105527 0.47335785627 0.86265653372
          0.63522821665 0.59445488453 0.74174100161 0.4104680419 0.28186717629 1.0092310905
          0.50771349669 0.53500312567 0.20014491677 0.55835527182 0.88797479868 0.32600265741
          0.64626687765 0.47047647834 0.29187476635 0.11082345247 0.38477960229 0.75458455086
          -0.050110783428 0.86781793833 0.55494499207 0.66185116768 0.5368347168 0.57957047224
          0.39615762234 0.65309971571 0.8022325635 0.51464194059 0.69490993023 0.61422365904
          0.459171772 0.44308108091 0.5553548336 0.14540097117 0.88204205036 0.5430675149
          0.89054685831 0.57278907299 0.05216024071 0.15107214451 0.51953309774 0.59583884478
          0.73548561335 0.32635515928 -0.2169996053 0.63764125109 0.65767925978 0.7951990962
          0.55043792725 0.57331287861 0.56664854288 0.45868557692 0.5854190588 0.62726205587
          0.77902364731 -0.37672233582 -0.083944447339 0.53600859642 0.67839211226 0.6083843112
          0.97229158878 0.57722389698 0.9064874053 0.065608531237 0.58330571651 0.41292798519
          0.58343666792 0.5846285224 -0.55247449875 -0.26071497798 0.59639102221 0.40111085773
          0.64016991854 0.71242362261 0.91762632132 0.58573675156 0.71351826191 0.59463357925
          0.59523570538 0.59036040306 0.61686313152 -0.24076554179 0.38884013891 -1.1833529472
          0.61982262135 1.162078023 0.60157632828 0.64160448313 0.4243080318 0.59780663252
          0.71710473299 0.80213207006 0.59370017052 0.63798367977 0.65556412935 0.593285501
          -0.59697419405 0.61835622787 0.82735615969 0.60092025995 0.63656121492 0.65616434813
          0.62303483486 0.59048241377 0.60135233402 0.70959073305 0.87861222029 0.74983102083
          0.77651631832 0.68727636337 0.1349260956 0.85385686159 0.60234820843 0.5995182991
          0.61576378345 0.58654069901 0.59262889624 0.89748686552 0.58738124371 0.58785682917
          0.70375674963 0.49893736839 0.33488205075 0.65739989281 0.60846960545 0.62211561203
          0.64270865917 1.2182029486 0.58569169044 0.58963149786 0.7567910552 0.60083138943
          0.60258382559 0.56679469347 0.62984251976 0.62461847067 1.1816242933 0.86555749178
          0.56954449415 0.57798188925 0.59988439083 0.43902534246 0.57398241758 1.0277856588
          0.46399271488 0.58245903254 0.70564419031 0.68140786886 0.78764683008 0.52970689535
          0.65710049868 1.1363575459 0.56571108103 0.60850220919 0.75165867805 0.5227829814
          0.56333774328 0.39817073941 0.58356291056 0.51147937775 0.96556377411 0.55115956068
          0.56878268719 0.24081304669 0.46113207936 0.99091994762 0.82401388884 0.54313361645
          0.59535932541 0.62407034636 0.72993654013 0.71428221464 0.5732524991 0.46278047562
          0.68633848429 0.68297564983 0.38892754912 0.52075982094 0.5574965477 0.346375525
          0.59830188751 0.57433724403 0.92274183035 0.51697283983 0.65613281727 0.39591705799
          0.067098125815 0.78204202652 0.55835217237 0.36981591582 0.51780194044 0.69702285528
          0.72024184465 0.58604633808 0.61663562059 0.48278045654 0.55892401934 0.762126863
          0.019989313558 0.5240983963 0.49030172825 0.16919229925 0.57997447252 0.56191825867
          0.35740095377 0.6294247508 0.84870564938 0.96496170759 0.50867503881 0.27892312407
          -0.21394336224 0.53263217211 0.42543300986 0.90420484543 0.44038721919 0.56797921658
          0.53518396616 0.60354924202 0.54199486971 0.69098973274 -0.12616890669 0.88023287058
          0.1464330107 0.47844287753 0.55037665367 0.83384144306 0.21636238694 0.62743020058
          0.54587215185 1.1137994528 0.36156466603 -0.44013735652 0.53658431768 0.51100438833
          0.4152982831 0.54345929623 0.589407444 0.44166281819 0.71991354227 0.52548229694
          -0.42309039831 0.85306721926 0.44752344489 0.52111291885 0.87949407101 0.19610625505
          0.27946409583 0.48104220629 -0.89773607254 0.56917959452 0.38084542751 0.51821643114
          0.52462828159 0.39625537395 0.5015130043 0.49674868584 0.39233702421 0.51773476601
          0.5630427599 0.76476657391 0.40661931038 0.6540672183 0.35401168466 1.1267445087
          0.49266579747 0.42027258873 0.46716743708 0.49502745271 0.44307178259 0.36516991258
          0.49095568061 0.4493111968 0.36629256606 0.47627538443 0.49164095521 0.48548880219
          0.60728621483 0.32732439041 0.47252300382 0.45838588476 0.41632598639 0.32483646274
          0.70647221804 0.45243650675 0.33061110973 0.51092743874 0.37482559681 0.44355350733
          0.64349871874 0.3546718061 0.3034748733 0.44660252333 0.3525904417 0.30094268918
          0.42926570773 0.23194117844 0.37668606639 0.42253407836 0.41592589021 0.44266274571
          0.44838017225 0.19801686704 0.46430045366 0.40820777416 0.17116707563 0.36626535654
          0.38648197055 0.6188544035 0.19994607568 0.4238576293 0.92903846502 0.46147119999
          0.26391485333 0.35274857283 0.3902490139 0.11627839506 0.22585862875 0.47963294387
          0.049474164844 0.3549310863 0.60932815075 0.3731598556 0.32547193766 0.23702219129
          0.78471755981 0.38094231486 -0.060372095555 0.21546988189 0.30305051804 -0.026055037975
          0.40930941701 0.0037461887114 0.33450469375 0.6920825243 -0.092378228903 -0.027057282627
          0.33229866624 0.18398237228 0.23257158697 0.030850436538 0.30408197641 0.12514577806
          0.49007919431 -0.3718957305 0.15683043003 0.36604475975 0.37305647135 0.013814319856
          0.29997900128 -0.40389302373 0.14839793742 -0.43344593048 -0.026666570455 -0.31568142772
          -0.52707093954 0.24991294742 0.27403402328 0.057368975133 0.086506344378 0.42115989327
          -0.066026076674 -0.40277442336 0.16183254123 0.18215750158 -0.28950843215 -0.67291891575
          -0.035419635475 -0.085574924946 0.36163324118 -0.33339351416 -0.30626779795 -0.62762963772
          0.19873410463 -0.45055064559 -0.042176831514 0.16441354156 -0.38624441624 -0.06848911196
          -0.61018228531 -0.88810038567 -0.36374875903 0.23283867538 -0.022651288658 -0.43144351244
          -0.78699493408 -0.93828880787 -0.91538184881 0.03477415815 -0.60895043612 -0.26700249314
          -0.70996201038 -0.43133285642 -0.63858360052 0.27645346522 0.063350506127 -0.97175914049
          0.091589175165 -0.2813179493 -0.72917222977 -0.49484497309 -0.94128769636 -0.8069447279
          -0.51010841131 0.24905496836 -1.2005156279 -0.67964756489 -1.2329397202 -0.97062397003
          -0.12089502811 -1.2802765369 -0.94162893295 -0.94276976585 -1.2539513111 -1.181842804
          -0.14711646736 -1.3331085443 0.36124765873 -1.2064619064 -0.98666113615 -0.5385594964
          -1.0846117735 -1.2219449282 -1.2730233669 0.024408899248 -1.5184882879 -1.4581519365
          -1.1885560751 -1.4638174772 0.23431628942 -1.4792015553 -0.33710238338 0.64069831371
          -1.5476772785 -0.92406398058 -1.6716073751 -1.4934117794 0.63079899549 -1.2579565048
          -1.7058525085 -1.473304987 -1.7056097984 -1.9002621174 -1.468768239 -1.2265876532
          -1.8047498465 -0.7527628541 -1.439688921 -2.1237223148 -1.7643442154 0.53288465738
          -0.029922736809 -0.35696926713 0.46080288291 -1.775400281 -2.1463699341 -2.3770668507
          -1.1580001116 -1.4298579693 -1.8236100674 -1.8308212757 -2.5278124809 -1.7524067163
          -2.3589477539 -2.9123442173 -1.3779833317 -2.7270450592 -2.4181749821 0.091895110905
          0.35985127091 -0.40126389265 -1.7403265238 -0.76279944181 -2.2636709213 -2.9670302868
          -1.2127643824 -3.3901221752 -2.1830244064 -1.6663327217 -2.1091225147 -1.4419106245
          -3.5266730785 -3.4258019924 -3.273475647 -2.1354289055 -3.1542069912 -0.75261682272
          0.0010348806391 -0.49439713359 -1.6409488916 -3.0681796074 -2.1889688969 -1.3220930099
          -2.7934827805 -3.8379983902 -4.2097949982 -2.3026630878 -1.7168171406 -2.5907974243
          -4.1357936859 -4.4132180214 -2.4924395084 -1.0198626518 -0.70901495218 -3.8779215813
          -2.136785984 -3.9346828461 -4.2217359543 -1.3224967718 -3.6186118126 -2.664955616
          -2.626019001 -3.3648314476 -4.497833252 -2.9634661674 -4.6483736038 -2.8163330555
          -4.4886302948 -2.815808773 -2.1595804691 -2.6301636696 -4.3032331467 -1.4890714884
          -1.1416244507 -3.2587816715 -4.2495532036 -3.0176551342 -4.552377224 -1.9126046896
          -4.6318902969 -4.6074571609 -4.1396713257 -3.3966412544 -3.5741529465 -4.8239398003
          -4.9666423798 -3.9276638031 -3.8151810169 -4.3610906601 -1.5289726257 -3.8416132927
          -4.2598295212 -2.1339931488 -2.6897625923 -3.5313971043 -4.3756666183 -5.1328663826
          -4.0682930946 -3.4857459068 -3.8348822594 -3.8385734558 -4.9107341766 -4.170331955
          -4.6304330826 -4.2511744499 -4.2403082848 -5.4103884697 -2.4109418392 -4.0335073471
          -4.2582540512 -4.5054583549 -3.0338497162 -3.4907414913 -4.0999011993 -3.614013195
          -4.3065104485 -5.6670212746 -4.0159506798 -5.1802759171 -4.2759284973 -4.5128364563
          -3.9286925793 -4.7627258301 -4.1452307701 -4.2780199051 -3.9754021168 -5.8301138878
          -3.1816780567 -4.5922961235 -4.2270793915 -4.007976532 -3.7756328583 -3.9869277477
          -4.2369709015 -3.6956477165 -6.2256975174 -4.2528896332 -4.1083607674 -5.6719617844
          -4.0723233223 -4.4109606743 -4.5416855812 -3.9578104019 -4.0573835373 -3.9040460587
          -3.9783027172 -6.4485850334 -4.4795761108 -4.6098647118 -4.0873661041 -4.1817369461
          -3.8391261101 -4.8102707863 -3.8547549248 -3.7297713757 -4.0954236984 -6.8853912354
          -4.1945328712 -3.9115521908 -4.157834053 -5.0662484169 -6.5945644379 -3.8221206665
          -3.9513707161 -7.0798425674 -4.5483207703 -3.781103611 -4.5436325073 -4.947373867
          -3.8347396851 -4.0655474663 -4.0558609962 -4.9097542763 -3.6754915714 -3.9810228348
          -4.0880155563 -3.8846154213 -4.1304574013 -7.6423277855 -4.1766719818 -3.8312516212
          -7.7112355232 -4.0302700996 -7.0645914078 -4.5585494041 -5.1129488945 -1.8201522827
          -5.3642463684 -3.9932692051 -4.1216049194 -2.7520587444 -4.8197202682 -5.0423722267
          -5.2276582718 -3.9914672375 -3.9288699627 -4.379509449 -3.5870571136 -3.6573014259
          -4.127538681 -8.1005563736 -4.3647065163 -8.5587844849 -9.964304924 -6.7020788193
          -3.7861824036 -5.6338596344 -0.49266314507 -4.1385354996 0.75221759081 -5.8055400848
          -4.5119552612 -3.5216705799 -3.7857677937 -5.5392799377 -6.1799983978 -4.4553894997
          -4.3416118622 -3.7629330158 -3.6523349285 -5.0273914337 -3.8293583393 -5.1014299393
          -6.1879210472 -2.7333288193 -3.6513028145 -6.4651093483 -4.4023714066 -1.624243021
          -6.6071615219 -6.1568374634 -4.5573058128 -4.4939908981 -6.8675203323 -7.118124485
          -7.0739412308 0.79620832205 -0.48891744018 -7.705432415 -6.648519516 -7.65356493
          -9.9453830719 -8.6246595383 -8.1391124725
        </DataArray>
        <DataArray type="Float32" Name="VELOCITY" NumberOfComponents="3" ComponentName0="X-VELOCITY" ComponentName1="Y-VELOCITY" ComponentName2="Z-VELOCITY" format="ascii" RangeMin="0" RangeMax="8.2621999699">
          0 0 0 0 0 0
          4.0618166924 0.11718922108 0 5.5235247612 0.32519870996 0
          4.2476973534 0.22863954306 0 5.8385782242 0.40768051147 0
          0 0 0 5.3344635963 0.12940968573 0
          4.8215918541 0.12443792075 0 5.3680009842 0.14620856941 0
          0 0 0 5.2857713699 0.1166646108 0
          5.2831740379 0.12296238542 0 5.3008098602 0.13708625734 0
          4.8730177879 0.072243176401 0 5.2853569984 0.089047707617 0
          0 0 0 5.3315672874 0.12398994714 0
          5.1734762192 0.02767659165 0 5.2667245865 0.093295551836 0
          5.2558727264 0.080622851849 0 4.858915329 -0.012088729069 0
          5.2886433601 0.096845269203 0 0 0 0
          5.3188419342 0.08696693182 0 5.286837101 0.022634141147 0
          5.2685346603 0.081287927926 0 5.1727604866 -0.033317346126 0
          5.2899770737 0.082563057542 0 4.8992657661 -0.03593384102 0
          5.3109502792 0.080945521593 0 5.2626261711 0.057599853724 0
          5.3310184479 0.071661025286 0 0 0 0
          5.2855119705 0.042519666255 0 5.2558255196 0.055920749903 0
          5.2669939995 0.059706389904 0 5.3806390762 -0.0095358481631 0
          5.2847185135 0.061011232436 0 5.1726098061 -0.062600918114 0
          4.8483524323 -0.029337363318 0 5.3032722473 0.057052224874 0
          0 0 0 5.3211660385 0.04894284904 0
          5.241648674 0.030799528584 0 5.2794289589 0.023626340553 0
          5.2445197105 0.035013534129 0 5.4485583305 -0.013589891605 0
          5.257973671 0.039994105697 0 5.2763690948 0.044204130769 0
          5.1939973831 -0.076119065285 0 5.2937469482 0.044933438301 0
          5.3105025291 0.043332021683 0 4.7376995087 -0.0033348428551 0
          5.2540578842 0.025808736682 0 5.5102720261 -0.029941599816 0
          5.2711529732 0.029413739219 0 0 0 0
          5.3246216774 0.035494919866 0 5.2701869011 0.0060879415832 0
          5.2399320602 0.016335126013 0 5.2852334976 0.030995916575 0
          5.2263717651 0.0082622449845 0 5.1785292625 -0.10248818249 0
          5.3004059792 0.030553493649 0 4.354259491 -0.033203627914 0
          5.3127055168 0.028032669798 0 5.2726392746 0.020096166059 0
          5.2284188271 -0.00080658198567 0 5.2607083321 0.014025395736 0
          5.2925887108 0.023988964036 0 5.2829732895 0.022394154221 0
          0 0 0 5.3229904175 0.022147154436 0
          5.5824217796 -0.017467595637 0 5.2493715286 0.0058397310786 0
          5.2091555595 -0.092839337885 0 5.2618746758 -0.0030568942893 0
          5.3024616241 0.021004080772 0 5.2371964455 -0.00166343397 0
          4.3310923576 -0.068047806621 0 5.3124637604 0.015816390514 0
          5.2872023582 0.017699256539 0 5.2781772614 0.015316344798 0
          5.2818255424 0.017438955605 0 5.220887661 -0.0087582943961 0
          5.2764520645 0.011497903615 0 0 0 0
          5.3227438927 0.010529899038 0 5.6534361839 -0.041200883687 0
          5.2947535515 0.01438306924 0 5.2724943161 0.0059468308464 0
          5.2600564957 -0.070971086621 0 5.2225170135 -0.013253834099 0
          5.2944698334 -0.0037813540548 0 5.2615318298 -0.0016791858943 0
          4.2299757004 -0.053682487458 0 5.3147115707 0.0052321115509 0
          5.3036384583 0.0069251554087 0 5.2879018784 0.011439378373 0
          5.2832465172 0.012620679103 0 5.2783198357 0.013002735563 0
          5.2790184021 0.013419235125 0 5.6959557533 -0.016798213124 0
          5.2468280792 -0.0078136688098 0 5.2808170319 0.010876146145 0
          0 0 0 5.3224949837 -0.00055208447156 0
          5.2847518921 0.0078094038181 0 5.3222174644 -0.066386647522 0
          5.2200655937 -0.024581689388 0 5.2911310196 0.0039908532053 0
          5.2869839668 0.0040530390106 0 4.1704077721 -0.077027156949 0
          5.3117117882 -0.0063265892677 0 5.2749018669 0.010224546306 0
          5.2743678093 0.010067489929 0 5.2784061432 0.0091625787318 0
          5.2818889618 0.0062552187592 0 5.1877875328 -0.0020616489928 0
          5.2810606956 0.0022834877018 0 5.7256245613 0.038908589631 0
          5.2768397331 0.0087363002822 0 5.3003931046 -0.0069511462934 0
          0 0 0 5.3223452568 -0.012453003787 0
          5.4202437401 -0.028363723308 0 5.282886982 0.0077045187354 0
          5.282512188 -0.00067512545502 0 4.4789366722 -0.012940426357 0
          5.2707662582 -0.0058324974962 0 5.3086948395 -0.017488092184 0
          5.2740559578 0.0086082853377 0 5.2925462723 0.0074979276396 0
          5.2771582603 0.0082216635346 0 5.2304654121 -0.009942278266 0
          5.2721791267 0.0079178549349 0 5.2894387245 -0.0097267832607 0
          5.2752132416 0.0063300314359 0 5.272544384 0.0066185258329 0
          0 0 0 5.3179540634 -0.02410954237 0
          5.2201623917 -0.016360806301 0 5.8119125366 0.082760415971 0
          5.2944273949 -0.020186956972 0 5.2757987976 0.00066582707223 0
          5.2734999657 0.0059059150517 0 5.2943921089 0.012516674586 0
          5.2761769295 0.0084820017219 0 5.2805118561 -0.008337858133 0
          5.2777528763 0.0093586510047 0 4.3691601753 -0.074066750705 0
          5.3024630547 -0.029705988243 0 5.3137717247 0.022255528718 0
          5.2799816132 -0.018672799692 0 5.2756695747 0.008493735455 0
          5.272339344 0.0031213192269 0 5.1401290894 -0.029298869893 0
          5.2759032249 0.0068418290466 0 0 0 0
          5.3257527351 -0.043615717441 0 5.2702264786 0.0083229672164 0
          5.2716941833 0.0046730511822 0 5.2863063812 -0.031123004854 0
          5.3385744095 0.034566923976 0 5.8459877968 0.21470291913 0
          5.2710876465 0.004245897755 0 4.1576385498 -0.013466330245 0
          5.2724423409 -0.00070041656727 0 5.2900910378 0.0124886306 0
          5.3062906265 -0.050603374839 0 5.2806315422 0.0094254342839 0
          5.2766814232 0.0030212597921 0 5.2703957558 -0.029613966122 0
          5.2700104713 0.0088447891176 0 5.2616000175 -0.012538045645 0
          5.2619261742 0.044631179422 0 5.2772479057 0.0084509020671 0
          5.268242836 0.011676272377 0 0 0 0
          5.3080472946 -0.055243421346 0 5.3109836578 0.064565263689 0
          5.2782988548 0.0090469643474 0 5.2785415649 0.0071903597564 0
          5.2769112587 0.0072980676778 0 5.8182535172 0.29867452383 0
          5.2803053856 0.0142394742 0 5.2780752182 -0.05532181263 0
          5.2503705025 -0.0032626048196 0 5.2423424721 0.022670900449 0
          5.2693901062 0.017271501943 0 5.2824983597 -0.061950050294 0
          5.2848525047 0.010714389384 0 5.3022933006 0.051350522786 0
          5.2761993408 0.010097567923 0 5.2527885437 -0.037500787526 0
          5.2504110336 0.012795760296 0 5.2654166222 0.014152624644 0
          5.2781867981 0.018897967413 0 5.2804055214 0.041577059776 0
          5.2846426964 0.0071323001757 0 5.2318644524 -0.015260743909 0
          5.2771425247 0.0072172451764 0 0 0 0
          5.3316326141 -0.096986941993 0 4.8983354568 0.21310211718 0
          5.2949542999 0.010593871586 0 5.2639751434 0.023008108139 0
          5.2638406754 0.020602086559 0 5.3410978317 0.043225090951 0
          5.2724108696 0.011596823111 0 5.2567453384 -0.068826630712 0
          5.2774152756 0.0049865469337 0 5.2751822472 0.0069021843374 0
          5.2882962227 0.086201027036 0 5.2161607742 0.00036069663474 0
          5.273168087 0.02331674844 0 5.2706627846 0.052206102759 0
          5.3096003532 -0.11091274768 0 5.298181057 0.0053109345026 0
          5.2782764435 0.024445746094 0 5.2604455948 0.019350510091 0
          5.2420239449 -0.055875923485 0 5.2073822021 0.02180897817 0
          5.2433128357 -0.040984548628 0 5.2728004456 0.0080144396052 0
          5.2618541718 0.037501182407 0 5.2884454727 0.0033764187247 0
          5.2680263519 0.014642037451 0 5.2118878365 0.16592815518 0
          5.2727556229 -0.072344325483 0 0 0 0
          5.2361497879 -0.016095066443 0 5.2750763893 0.0043330565095 0
          5.3003873825 0.022470679134 0 5.2742657661 0.10189296305 0
          5.2637820244 0.029275165871 0 5.3050727844 -0.103305839 0
          5.2783923149 0.0053167855367 0 5.2103266716 0.03447118029 0
          5.251431942 0.064767427742 0 5.2694139481 0.010519557633 0
          5.2726745605 0.0050022187643 0 5.2529473305 0.046145189553 0
          5.2624750137 0.018207615241 0 5.2405114174 0.0022894854192 0
          5.2780952454 0.0022183870897 0 5.0643873215 0.07597771287 0
          5.3255896568 -0.00032702292083 0 5.2840886116 -0.025660902262 0
          5.3183617592 -0.086388066411 0 5.2237420082 0.037806797773 0
          5.262485981 0.020610859618 0 5.2519078255 0.031619708985 0
          5.2252807617 0.022210171446 0 5.3148584366 -0.014924053103 0
          5.2691464424 0.0063580269925 0 5.2944378853 1.3936363757e-005 0
          5.2177219391 0.070600494742 0 5.2645335197 0.012723252177 0
          5.2739138603 0.0018476039404 0 0 0 0
          5.7339320183 -0.34515804052 0 5.3567557335 0.0075247529894 0
          5.3233623505 -0.081314213574 0 5.207672596 0.034947354347 0
          5.2537522316 0.020056989044 0 5.2782249451 0.0013278111583 0
          5.3290243149 -0.10128188878 0 5.2550282478 0.032503038645 0
          5.2377719879 0.046100072563 0 5.235080719 0.053517013788 0
          5.2401223183 0.03288660571 0 5.2651662827 0.0078408503905 0
          5.415459156 0.029550215229 0 5.2698540688 0.002540280344 0
          5.3458361626 -0.0071709491313 0 5.0873126984 0.020610615611 0
          5.2767744064 -0.0019275007071 0 5.2465610504 -0.0080384491012 0
          5.2584590912 0.013452248648 0 5.5131115913 -0.26434913278 0
          5.2614784241 0.016060899943 0 5.2068681717 0.048630621284 0
          5.255906105 0.040110200644 0 5.2957382202 -0.0080062719062 0
          5.4716553688 0.047168862075 0 5.2427129745 0.020738897845 0
          5.2657756805 0.0038406299427 0 5.2607235909 0.0089408028871 0
          5.2712154388 -0.0015069831861 0 4.5012102127 -0.084045507014 0
          0 0 0 5.2341995239 0.036857910454 0
          5.2834558487 0.073840729892 0 5.2768034935 -0.0040989047848 0
          4.4409751892 -0.20983111858 0 5.5095171928 0.039463616908 0
          4.8641533852 -0.065301671624 0 5.227622509 0.021912397817 0
          5.2263684273 0.032244216651 0 5.236020565 0.036907460541 0
          5.2621216774 0.0049064173363 0 4.9732065201 -0.035477019846 0
          5.2665381432 -0.00026116389199 0 5.2145175934 0.036909252405 0
          5.318939209 0.090680092573 0 5.3629088402 -0.021962294355 0
          5.2508282661 0.010613489896 0 5.1579332352 0.012193522416 0
          5.2660150528 0.01015013922 0 5.2735843658 -0.0067325127311 0
          4.9461007118 0.0041621448472 0 5.2557287216 0.0081265140325 0
          5.2300410271 0.022224282846 0 5.5507063866 0.05166009441 0
          4.9000954628 0.037654768676 0 5.293056488 -0.017093254253 0
          5.2407641411 0.0094642126933 0 5.3530311584 0.12315280735 0
          5.2624063492 0.001423449954 0 5.2579441071 0.0052011311054 0
          5.267370224 -0.0049901758321 0 0 0 0
          0 0 0 0 0 0
          0 0 0 5.2358317375 -0.0050592659973 0
          4.8173799515 0.049157835543 0 0 0 0
          5.2733778954 -0.011046400294 0 5.4457087517 0.092564344406 0
          5.2956089973 0.033203732222 0 5.2127475739 0.010271798819 0
          5.6170268059 -0.0022205833811 0 5.1789078712 0.030054247007 0
          5.2234072685 0.01508604642 0 0 0 0
          5.3754692078 -0.033463198692 0 5.259563446 0.0026058014482 0
          5.2541103363 0.0043804342858 0 4.6821427345 0.052657719702 0
          5.2624959946 -0.002629248891 0 5.1069092751 -0.002451567445 0
          5.241959095 0.00041194132064 0 5.2663946152 -0.0076007451862 0
          5.2686090469 -0.011387241073 0 0 0 0
          5.2304372787 0.0022385707125 0 5.2488245964 0.0016006275546 0
          0 0 0 5.2877111435 -0.024750983343 0
          4.372982502 0.065274327993 0 0 0 0
          5.2624702454 -0.0076935761608 0 5.2590999603 -9.5745490398e-006 0
          5.4614543915 0.13989254832 0 5.2569355965 0.0025631343015 0
          5.2467398643 -0.030705941841 0 5.4471340179 -0.046251934022 0
          0 0 0 5.2675266266 -0.018077610061 0
          5.3664574623 -0.068938031793 0 5.123705864 0.055359318852 0
          4.3408751488 0.09655354917 0 5.2297749519 -0.0078157167882 0
          5.8636550903 0.058579709381 0 5.0770869255 -0.036320324987 0
          5.2579722404 0.00093338702573 0 0 0 0
          5.2581110001 -0.0040655895136 0 5.2550778389 0.00070523720933 0
          5.2622666359 -0.016446931288 0 5.225124836 -0.01203445252 0
          5.2564506531 -0.023019962013 0 5.2610826492 -0.014758867212 0
          5.1985583305 -0.013530785218 0 5.2462410927 -0.0081814071164 0
          5.2773346901 -0.035253472626 0 0 0 0
          5.2564053535 7.2630682553e-005 0 3.5795388222 0.056351806968 0
          0 0 0 5.2558927536 -0.0082386825234 0
          5.263584137 -0.054700102657 0 5.2569379807 0.0011289130198 0
          5.9713363647 -0.07747746259 0 5.1911849976 0.021778602153 0
          5.2586488724 -0.02318011038 0 5.2548298836 -0.0046182777733 0
          5.2271742821 -0.024308759719 0 5.3426179886 -0.078145377338 0
          4.1081881523 0.061405017972 0 0 0 0
          5.2200922966 -0.02604765445 0 5.057507515 -0.032245967537 0
          5.2537770271 -0.016952300444 0 5.257461071 0.0013896939345 0