<?xml version="1.0"?>
<VTKFile type="PolyData" version="0.1" byte_order="LittleEndian" compressor="vtkZLibDataCompressor">
  <PolyData>
    <Piece NumberOfPoints="1041" NumberOfVerts="0" NumberOfLines="0" NumberOfStrips="0" NumberOfPolys="1940">
      <PointData>
        <DataArray type="Float32" Name="PRESSURE" format="ascii" RangeMin="-5.4053792953" RangeMax="4.3542814255">
          0 0.18657845259 0 0.064766973257 0.16662585735 0
          0.090287253261 0.039697833359 0.14594843984 0.068942390382 0.10199413449 0
          0.0098341563717 -0.017559519038 0.074621751904 0.032464444637 0.069977737963 0
          0.013775362633 -0.019393075258 0.0067678457126 0.0041473209858 -0.02887432836 -0.025689691305
          0 -0.00067016039975 -0.00019963039085 -0.050055466592 0.0027677838225 -0.097250252962
          -0.019232118502 0.019515471533 0 -0.12291460484 -0.021210025996 0.002076580422
          0.01070321165 -0.098236843944 -0.00012449930364 -0.14402426779 -0.20526094735 -0.031495332718
          -0.23568473756 0 -0.048731081188 -0.10741938651 -0.011535653844 -0.17967753112
          0.02439378202 0.031202280894 -0.21920736134 0.015369136818 0.003309795633 -0.27498278022
          0.03720844537 -0.28088986874 0.043088693172 -0.25855371356 0 -0.20240478218
          -0.02157022804 0.017656393349 -0.13427305222 -0.31753945351 0.025466980413 -0.33694294095
          0.01575345546 0.028793614358 -0.24383583665 0.0087773352861 0.038907226175 0.017550103366
          -0.35025557876 0 -0.37008523941 -0.10933486372 -0.3726888001 -0.33502799273
          0.03282539919 -0.2004365474 -0.41649192572 0.024319363758 0.019145196304 -0.037470802665
          -0.0043514738791 -0.34802013636 -0.10371419787 -0.41126289964 0 -0.44647112489
          0.0086689190939 -0.2130574584 -0.4482511282 -0.46503460407 -0.47156560421 -0.33102950454
          -0.46364346147 0.0096511160955 0.033265639096 0.0092198150232 0.0025192049798 -0.11169684678
          -0.04535266012 -0.51740080118 -0.45791885257 -0.19567202032 -0.44511014223 0
          -0.31961032748 -0.48881906271 -0.51252895594 0.037488989532 -0.44622951746 -0.51525366306
          -0.0010882171337 -0.11340292543 -0.21632012725 -0.041741807014 -0.015477203764 -0.54024684429
          -0.50952535868 -0.48568758368 -0.32256096601 0.03416345641 -0.50074058771 0
          -0.48212075233 -0.44692292809 0.023451384157 -0.51426464319 -0.5386300087 -0.030768888071
          -0.17227730155 -0.4920347631 -0.060334160924 -0.49345517159 -0.28650638461 0.042925197631
          -0.06230597198 -0.36710038781 -0.4232930541 0 -0.48016130924 -0.43112561107
          0.0032161434647 0.037203107029 -0.50715625286 -0.51668608189 -0.33307626843 0.043475512415
          -0.17666265368 -0.48618686199 -0.026509722695 -0.46730670333 0.013733881526 -0.3972556591
          -0.0026681739837 -0.41276171803 -0.43345072865 -0.44852146506 0 -0.14314609766
          -0.4777354002 0.0048346710391 -0.36875855923 -0.2996468544 -0.43498012424 -0.5712326169
          0.02858903259 -0.32365974784 -0.04181092605 -0.37012019753 -0.43220570683 0.022875631228
          -0.36398816109 0.068709649146 -0.26408207417 -0.46298727393 -0.33229017258 -0.35279116035
          0 -0.25021368265 -0.10831355304 -0.42899155617 -0.39212760329 -0.26641103625
          -0.3563901484 -0.0037149633281 -0.0010265720775 -0.24342750013 -0.24462486804 -0.041712936014
          -0.21892817318 -0.20781552792 -0.33155694604 0.02145412378 -0.055192261934 -0.48460966349
          -0.25238287449 -0.16113427281 -0.50339502096 0.00099688547198 -0.45271784067 -0.28745788336
          0 -0.19147004187 -0.37915059924 -0.15390971303 -0.16372531652 -0.2347150743
          -0.26421108842 -0.028305845335 -0.41102573276 -0.30872821808 -0.19643007219 -0.045583013445
          -0.15161186457 -0.1221845299 -0.037771195173 -0.4743590951 -0.29601171613 -0.53550881147
          0.011440286413 -0.12784321606 -0.0085251769051 -0.26513651013 -0.11835787445 -0.49963110685
          -0.20153348148 -0.15851740539 0 -0.13067896664 -0.046763341874 -0.31422528625
          -0.43681812286 -0.17682047188 -0.10209885985 0.012895075604 -0.39232036471 -0.23732729256
          -0.12578119338 -0.21752564609 -0.27142944932 -0.11973300576 -0.15680448711 -0.14227440953
          -0.31662288308 -0.14633193612 -0.51535624266 -0.0064408169128 0.012779460289 -0.35932478309
          -0.53391057253 -0.11074078083 -0.20386320353 -0.05406536907 -0.2518593967 -0.43309411407
          -0.19289645553 -0.18257035315 -0.24941051006 -0.16955524683 0 -0.10680107027
          0.03732650727 -0.30072328448 -0.15204796195 -0.31851685047 0.044732581824 -0.49783757329
          -0.19146414101 -0.22201503813 -0.17898260057 -0.22753365338 -0.18389049172 -0.22777585685
          -0.47823175788 -0.27383548021 -0.21533805132 0.0052838013507 -0.1939355284 0.05526740104
          -0.42365810275 -0.41141057014 -0.074366636574 -0.31410008669 -0.27652451396 -0.23804576695
          -0.24000690877 -0.23580990732 -0.19915540516 0 -0.30772733688 -0.31436827779
          -0.15588434041 -0.19243715703 0.14271149039 -0.34726697206 0.11941570789 -0.30782645941
          -0.35159048438 -0.50481128693 -0.26216396689 0.041186254472 -0.21778787673 -0.45421603322
          -0.23210470378 -0.38246545196 -0.28183564544 -0.41361114383 -0.30614963174 -0.14084853232
          -0.045184701681 -0.26745259762 -0.42287281156 -0.41650539637 -0.13047328591 -0.17044223845
          -0.38360804319 -0.32755464315 -0.26319006085 -0.32883918285 -0.15867161751 0
          -0.43226513267 0.12442453951 0.10332012177 -0.46443480253 -0.22003518045 0.1096086055
          -0.081136777997 -0.36604782939 -0.45205202699 -0.50019741058 -0.43081781268 -0.42880252004
          -0.53214836121 0.036447174847 -0.29925739765 -0.33660802245 -0.38235110044 -0.27418234944
          -0.21359165013 -0.54161030054 -0.56589692831 -0.16489598155 -0.07984033972 -0.049935936928
          -0.55862611532 -0.55605602264 -0.14586782455 -0.068316817284 -0.36542779207 -0.55881816149
          -0.15779681504 -0.29363256693 -0.42239293456 -0.43394896388 -0.5994335413 -0.36286377907
          -0.22896586359 -0.031926665455 -0.18538184464 -0.35101723671 -0.38638585806 -0.68841427565
          -0.44092097878 -0.66323506832 -0.42062848806 -0.28564724326 -0.27533912659 -0.55573987961
          -0.064665995538 -0.80570274591 -0.71915566921 -0.096735306084 -0.80706357956 -0.7956340909
          -0.019144900143 -0.38042077422 -0.37594157457 -0.39740088582 -0.67833036184 -0.22078529
          -0.7053502202 -0.54004132748 -0.33101275563 -0.25832399726 -0.040511056781 -0.77967363596
          -0.82474005222 -0.11259319633 -0.44098269939 -0.32236579061 -0.95987951756 -0.75846028328
          -0.15399026871 -0.55576884747 -0.37900695205 -0.027198025957 -0.70929729939 -0.97889268398
          -0.81524837017 -0.43713676929 -0.43204316497 -0.042191121727 -0.95600688457 -0.95112907887
          -0.76315915585 -0.55776166916 -0.7818095088 -0.22257828712 -0.70411878824 -0.13606934249
          -0.32067319751 -0.1613432765 -0.42136690021 -0.4279076457 -0.88204115629 -0.086170122027
          -1.0799146891 -0.91163957119 -0.81621450186 -0.72954571247 -0.85692149401 -0.55089867115
          -0.039896525443 -0.82765376568 -1.1218053102 -0.39147403836 -0.14733691514 -0.49652928114
          -0.14310464263 -0.81266456842 -1.0140713453 -1.0425652266 -0.11337307096 -0.77532798052
          -0.92895150185 -0.84505915642 -0.87894117832 -0.30131593347 -0.080550864339 -0.90101748705
          -0.40115451813 -1.0848110914 -0.86822539568 -0.91999572515 -0.52634561062 -0.91758418083
          -0.76463800669 -0.89285969734 -1.0893838406 -0.076998569071 -0.052756085992 -0.16987559199
          -0.88395816088 -0.2926928103 -0.24041466415 -0.86308223009 -0.96867984533 -0.95924162865
          -0.94531095028 -1.0257476568 -0.98676538467 -0.11682954431 -1.0306888819 -0.89862746
          -0.48786628246 -0.90839779377 -0.18386313319 -0.72810906172 -1.0767550468 -0.93331873417
          -0.92421621084 -0.02572732605 -0.95880097151 -0.91056632996 -0.4013440311 -0.91354864836
          -0.89823830128 -0.92787486315 -0.9058406949 -1.1114253998 0.005199695006 -0.27420300245
          -0.92229020596 -0.85648757219 -1.044416666 -0.92417967319 -0.86971211433 -0.21970294416
          -0.88877725601 -0.80803877115 -0.71428245306 -0.89083260298 -0.5770585537 -0.83607202768
          -1.0674095154 -0.083075091243 -0.7835521698 -1.1361651421 -0.44139394164 -0.81056344509
          -0.90907073021 -0.90366524458 -0.86520075798 -0.84425926208 -0.36658659577 -0.76745545864
          -0.78294420242 -0.92721360922 -0.87527799606 -0.23670129478 -0.56385117769 -0.72089755535
          -0.95975887775 -1.0925558805 -0.72230291367 -0.83928990364 -0.7453263998 -0.70937800407
          -0.96548241377 -0.52984559536 -0.924474895 -0.64920705557 -0.65735375881 -0.90704733133
          -0.99707585573 -0.80482703447 -0.38112920523 -0.72578316927 -1.0342819691 -0.81872689724
          -0.94296061993 -0.69983804226 -0.66532099247 -0.71557188034 -0.74421966076 -0.94803547859
          -0.65799570084 -0.84142518044 -0.98807883263 -0.6027956605 -0.69243222475 -0.83737963438
          -0.94309705496 -0.56606847048 -0.58650559187 -0.91943454742 -0.84863704443 -0.7267190218
          -0.84502708912 -0.95225250721 -0.77236044407 -0.73459899426 -0.67754298449 -0.77560973167
          -0.95785880089 -0.70647078753 -0.65853440762 -0.66584289074 -0.62348222733 -0.70652002096
          -0.62426429987 -0.90050423145 -0.71247267723 -0.92158657312 -0.95946830511 -0.83798587322
          -0.9428819418 -0.66769701242 -0.73709911108 -0.80440938473 -0.87628763914 -0.89194375277
          -0.67563444376 -0.72919481993 -0.76785176992 -0.99271887541 -0.65152257681 -0.65743172169
          -0.69539195299 -0.62261515856 -0.78843915462 -0.67863285542 -0.86855989695 -0.66789853573
          -0.99497842789 -0.86136889458 -0.71747601032 -0.6175763607 -0.8096370101 -0.96063619852
          -0.98104727268 -0.67232251167 -1.0574485064 -0.88769805431 -0.9011067152 -0.68932890892
          -0.60076510906 -0.84710282087 -0.71081149578 -0.62212967873 -0.82105374336 -0.58125066757
          -0.76789408922 -0.88448238373 -0.80501586199 -0.87624973059 -0.93644303083 -0.83175867796
          -0.66428232193 -0.75646603107 -0.91668581963 -0.64607679844 -0.99858886003 -1.0059736967
          -0.66301977634 -0.70106136799 -0.97011268139 -0.85108077526 -0.62040179968 -0.70609778166
          -0.87163585424 -0.95984941721 -0.7270924449 -0.67656326294 -0.90661722422 -0.92603129148
          -0.87698376179 -0.65714728832 -0.89260715246 -0.7855374217 -0.88752698898 -0.7184189558
          -0.85237687826 -0.93493378162 -1.0107192993 -0.7220736742 -0.8180899024 -0.996571064
          -0.80019599199 -1.0259901285 -0.75379276276 -0.87777405977 -0.90313190222 -0.71988326311
          -0.79011958838 -0.99623417854 -0.8880187273 -0.83470135927 -0.98138141632 -0.78144866228
          -0.79008811712 -0.78297990561 -0.91671091318 -0.87099409103 -0.6923506856 -0.86849582195
          -0.92001730204 -0.85144996643 -0.87223529816 -0.96081662178 -0.84511983395 -0.916061759
          -0.97602558136 -0.91260868311 -0.89446467161 -0.89801716805 -0.93376213312 -0.81655722857
          -0.64234435558 -0.90601742268 -0.95815330744 -0.87131822109 -0.98943799734 -0.93844825029
          -0.66723233461 -0.88114672899 -0.97683721781 -0.55320650339 -0.89504367113 -0.83419233561
          -0.95487236977 -0.95341938734 -0.94422930479 -0.82661783695 -1.0249737501 -0.70295631886
          -0.91644567251 -0.85386389494 -1.0309208632 -1.0213890076 -0.50948351622 -0.8327665925
          -1.0562610626 -0.82765179873 -1.0694049597 -0.80998313427 -0.89645320177 -0.78992152214
          -0.69206738472 -0.40209981799 -1.0986666679 -0.41781538725 -1.0005292892 -0.94852143526
          -0.96708011627 -0.56308591366 -1.0332846642 -1.0868418217 -0.75139868259 -0.68786531687
          -0.31493210793 -1.0024762154 -1.0742530823 -0.7823060751 -0.3540378511 -0.70944839716
          -1.1010453701 -1.04895854 -1.029296875 -0.99456274509 -0.8544369936 -0.19962644577
          -0.63509714603 -0.41917896271 -0.17134436965 -1.1031759977 -1.0447883606 -0.85083425045
          -0.26703983545 -0.45733252168 -0.56636756659 -1.0265202522 -0.62467360497 -0.92632579803
          -0.11269184202 -0.094146378338 -0.7043595314 -1.0158908367 -1.021723628 -0.51958757639
          -1.0028185844 -0.89584505558 -0.69852155447 0.0095602525398 -0.48546621203 0.060936406255
          -1.0469402075 -0.94096374512 0.04459887743 -0.71222215891 -0.17065854371 -0.51895070076
          -0.86539363861 -0.32092359662 0.10665949434 -0.56223893166 -0.38359844685 0.16808877885
          -1.0025650263 0.082001537085 -0.85816270113 -0.35808849335 -0.53790938854 -0.64880204201
          0.16900084913 -0.37421417236 0.25738990307 -0.71315008402 0.30409321189 0.14402189851
          -0.41654613614 -0.067077465355 -0.73092901707 -0.20793308318 -0.55914050341 -0.8065136075
          0.23017840087 -0.43894886971 0.39113718271 -0.22772914171 -0.68325972557 -0.38223475218
          0.37565994263 -0.25825670362 0.22834426165 0.36663383245 -0.263266325 -0.27122208476
          0.25560221076 -0.32284742594 -0.25018969178 0.50921952724 0.045411653817 -0.64414399862
          -0.44319671392 -0.37440434098 -0.51942354441 -0.15527065098 0.22402459383 0.41092923284
          -0.13194204867 -0.15899814665 -0.23215205967 -0.24597945809 0.42406371236 -0.19230929017
          0.13325664401 0.39152753353 0.019314236939 0.1992751509 0.24150882661 -0.31551632285
          -0.43708327413 -0.19989468157 -0.078325293958 -0.075463064015 -0.010097835213 -0.022961307317
          0.092061847448 0.08463358134 -0.16260194778 0.082713350654 -0.24659213424 0.25670173764
          0.02765853703 -0.12280724943 0.072576716542 -0.24173164368 -0.18213632703 0.027808781713
          -0.213831231 -0.10416093469 0.33875107765 -0.055897530168 -0.14256834984 0.21185615659
          -0.21537674963 -0.53511995077 -0.57518428564 0.072205372155 0.42995604873 -0.30046951771
          -0.56344693899 -0.84871292114 -0.32421445847 0.096986740828 -0.031386680901 -0.45346209407
          0.53017145395 -0.70046722889 -0.81279563904 0.25848188996 -0.49479296803 -0.3067330718
          0.27419009805 -0.40684717894 -1.1216839552 -0.22626431286 -1.4206142426 0.35826659203
          -1.4194047451 -0.53235942125 0.43545424938 0.45395496488 -1.2748976946 0.23055502772
          0.15016266704 -0.057624686509 -1.0076874495 -0.46183973551 -1.3027086258 0.30308145285
          -1.5226994753 -1.8528397083 -0.93644535542 -0.53737270832 -0.034224882722 -1.9006874561
          -1.6700652838 -0.75786197186 -0.54537558556 -1.8239225149 0.2351795584 -0.085228569806
          -1.6540232897 0.2291983366 0.24016693234 -0.77151501179 -1.2321689129 -1.753682971
          -0.71890246868 0.10207952559 -0.78884369135 -1.437176466 -2.0277142525 -0.90598851442
          -2.0935754776 -0.93922078609 -1.9186806679 -1.9880632162 0.13464397192 -1.7762829065
          -1.2137281895 -0.80148369074 -0.059770390391 -1.3832179308 -1.6612813473 -0.27226039767
          -1.4471417665 -2.0357503891 -1.8979471922 -2.0943403244 -1.2308965921 -1.566649437
          -1.3501093388 -2.0129249096 -1.7265608311 -1.4854226112 -1.5232332945 -2.0736744404
          -0.19160166383 -1.2406533957 -1.5923868418 -1.5161215067 -0.47953736782 -1.7827351093
          -0.91881632805 -1.9408978224 -2.1059799194 -1.9029890299 -1.9020043612 -1.9919816256
          -2.075196743 -1.7811989784 -1.9769005775 -1.3754968643 -1.6547886133 -0.69601589441
          -1.0826901197 -2.0098917484 -1.1295032501 -1.496188283 -1.7323726416 -1.9922100306
          -1.2208064795 -1.9340903759 -2.1897120476 -1.5986517668 -1.8561897278 -2.0422019958
          -1.8544994593 -1.7253382206 -2.2558677197 -2.1124501228 -2.0405709743 -1.7717881203
          -1.477478385 -1.9973853827 -1.2658272982 -0.75517439842 -2.0075039864 -1.6454159021
          -0.60337293148 -2.2770051956 -2.2717790604 -2.0131521225 -1.2899779081 -1.451603651
          -1.9155519009 -1.7233237028 -2.2857453823 -1.984343648 -1.682518959 -1.254942894
          -2.0676145554 -2.7492723465 -2.3693981171 -2.9527511597 -1.7240614891 -2.2019579411
          -1.9445649385 -1.0538227558 -2.4470291138 0.4297670424 -1.9466474056 1.1315053701
          -2.0553414822 -1.9293153286 -1.2932758331 -2.2829949856 -4.0911641121 -1.2759094238
          -2.49507761 -2.0219762325 -1.7674165964 -2.0596089363 -2.3637194633 -3.6006042957
          -0.63314592838 -2.0324735641 -4.6771702766 -2.3680720329 -0.30253452063 -2.0430915356
          4.3237719536 -3.9974365234 -0.74317371845 -1.949665308 1.162558794 -5.4053792953
          -2.2401359081 -1.6773480177 -4.8368573189 1.175206542 -3.0344667435 -2.1084845066
          -2.0615775585 0.44115912914 -4.6921329498 -1.9618178606 -5.3301577568 -2.2288196087
          -2.0201532841 1.2034074068 -2.8096075058 4.3542814255 -1.9932287931 -1.9621492624
          -2.3189234734 -0.2591586411 -4.652121067 -2.0053210258 -3.5500767231 -1.9532663822
          -2.3162062168 -2.0130844116 -1.9831753969
        </DataArray>
        <DataArray type="Float32" Name="VELOCITY" NumberOfComponents="3" ComponentName0="X-VELOCITY" ComponentName1="Y-VELOCITY" ComponentName2="Z-VELOCITY" format="ascii" RangeMin="0" RangeMax="8.7132046713">
          0 0 0 0 0 0
          2.0873568058 0.009166826494 0 2.7869782448 0.048818014562 0
          1.9926651716 0.068022146821 0 3.1590435505 0.046257268637 0
          0 0 0 3.2622208595 -0.083033569157 0
          2.1920278072 0.0011902059196 0 2.8814980984 -0.042847454548 0
          0 0 0 3.711710453 -0.11733768135 0
          3.6598629951 -0.061322517693 0 4.2239961624 -0.06859587878 0
          2.1276061535 0.011395382695 0 2.9322919846 -0.055116143078 0
          0 0 0 4.6652936935 -0.082117363811 0
          2.6650855541 -0.056363083422 0 4.7315506935 -0.057806689292 0
          4.2416248322 -0.062282972038 0 2.0674653053 -0.022724118084 0
          5.0973954201 -0.048402052373 0 0 0 0
          5.4557609558 -0.063631154597 0 3.6125843525 -0.070392683148 0
          5.1185050011 -0.022636655718 0 2.6408147812 -0.056557599455 0
          5.6222300529 0.0029469910078 0 2.0592601299 -0.029537657276 0
          5.8542222977 0.0019808951765 0 5.0079264641 -0.033116362989 0
          6.1078896523 -0.0098496684805 0 0 0 0
          4.4344668388 -0.058294959366 0 5.6596841812 3.8678186684e-005 0
          5.9344816208 0.023182183504 0 3.5066871643 -0.073758855462 0
          6.1991882324 0.048071693629 0 2.6088116169 -0.068592533469 0
          2.0085587502 -0.024260036647 0 6.4393110275 0.063839010894 0
          0 0 0 6.6401958466 0.044779784977 0
          5.4076542854 -0.049354664981 0 4.6217508316 -0.066637076437 0
          5.9184560776 -0.011154927313 0 3.5840368271 -0.079840578139 0
          6.3376421928 0.029838373885 0 6.5931744576 0.076507657766 0
          2.6179366112 -0.06239521876 0 6.7642774582 0.11426039785 0
          6.872677803 0.11404722929 0 1.950373292 -0.0056164222769 0
          6.5354399681 -0.01049546618 0 3.443836689 -0.067846708 0
          6.8024992943 0.040979906917 0 0 0 0
          7.0808253288 0.075436629355 0 4.7186255455 -0.080143913627 0
          6.2677426338 -0.055986240506 0 6.9675140381 0.098432675004 0
          5.7076125145 -0.074387937784 0 2.5180687904 -0.061239391565 0
          7.0908231735 0.12484503537 0 1.7591525316 -0.0095377741382 0
          7.2045497894 0.098740540445 0 6.9120454788 -0.032149326056 0
          5.527513504 -0.092860646546 0 6.7148942947 -0.095412135124 0
          7.0909261703 0.079541712999 0 7.0364265442 0.027493424714 0
          0 0 0 7.3312849998 0.051768790931 0
          3.4857411385 -0.055195618421 0 6.4822301865 -0.13905966282 0
          2.4833817482 -0.04280076921 0 4.7839679718 -0.066316924989 0
          7.1969890594 0.071380630136 0 6.1629648209 -0.13368186355 0
          1.7602880001 -0.032204046845 0 7.324921608 0.019165480509 0
          7.0840044022 0.012187097222 0 6.9933519363 -0.12920130789 0
          7.0599508286 -0.049484908581 0 5.7606196404 -0.11937760562 0
          6.87449646 -0.18926610053 0 0 0 0
          7.4082045555 -0.0087568610907 0 3.3411285877 -0.034391511232 0
          7.1645140648 0.011814616621 0 6.6437525749 -0.20957143605 0
          2.5101151466 -0.040591180325 0 5.3628940582 -0.079315714538 0
          4.4999861717 -0.038707077503 0 6.3219637871 -0.17735210061 0
          1.7109838724 -0.015973130241 0 7.3489842415 -0.049782518297 0
          7.2879495621 -0.067095220089 0 7.1262488365 -0.012137650512 0
          7.1244673729 -0.022539751604 0 7.1420192719 -0.16308413446 0
          7.148999691 -0.074714928865 0 3.4897618294 -0.0087631437927 0
          6.0152254105 -0.12490335107 0 7.0560383797 -0.2188052237 0
          0 0 0 7.3240132332 -0.056585531682 0
          6.8083176613 -0.21113501489 0 2.5241370201 -0.026989629492 0
          5.4752726555 -0.03857254982 0 7.1688346863 -0.080638684332 0
          6.5420527458 -0.15147790313 0 1.681096673 -0.027331134304 0
          7.1714243889 -0.11712636054 0 7.2803263664 -0.046946972609 0
          7.3280816078 -0.14114290476 0 7.1895823479 0.020919658244 0
          7.12296772 -0.0019287228351 0 4.7902588844 0.0092954337597 0
          6.2267875671 -0.080664925277 0 3.4747517109 0.0022474359721 0
          7.2731070518 -0.17119424045 0 7.0879306793 -0.14306150377 0
          0 0 0 7.0675010681 -0.075698196888 0
          2.5926017761 0.0022820674349 0 7.0412931442 -0.13818049431 0
          7.013739109 -0.061160713434 0 1.8305478096 -0.015868909657 0
          5.7466692924 0.01259030588 0 6.8974614143 -0.13248071074 0
          7.4223051071 0.023956265301 0 6.779088974 -0.055494442582 0
          7.2709007263 0.10354091227 0 4.552713871 0.037669222802 0
          7.5441827774 -0.05350041762 0 6.9379477501 -0.13683775067 0
          7.0807147026 0.097272768617 0 7.5304274559 -0.073247902095 0
          0 0 0 6.6591553688 -0.050454270095 0
          5.315032959 0.053627826273 0 3.0768766403 0.04026113078 0
          6.7212901115 -0.14255730808 0 6.9403662682 0.029225487262 0
          7.3402137756 -0.017062129453 0 6.6972737312 0.038640908897 0
          7.5265498161 0.057975698262 0 6.818549633 -0.068763554096 0
          7.2954287529 0.15673415363 0 1.7585158348 -0.024494238198 0
          6.4636492729 -0.092977277935 0 6.0940704346 0.08008299768 0
          6.5575351715 -0.10785266012 0 7.6744480133 -0.0053352196701 0
          6.8536028862 0.11180054396 0 4.8648271561 0.066659115255 0
          7.6487240791 -0.0092495307326 0 0 0 0
          6.130625248 0.0042791282758 0 6.9572434425 0.20586529374 0
          7.3691544533 0.095550626516 0 6.2665333748 -0.094009540975 0
          5.8067407608 0.087820887566 0 2.8189861774 0.039976354688 0
          6.7481622696 0.15531262755 0 1.6574062109 -0.0060048173182 0
          6.5821700096 0.027681456879 0 3.7619402409 0.049408696592 0
          5.8750967979 -0.031950447708 0 7.3819437027 0.1262191385 0
          7.1713371277 0.18794131279 0 6.0566325188 -0.06056791544 0
          6.4729003906 0.14029850066 0 6.2291898727 -0.042944081128 0
          4.7588076591 0.07690731436 0 7.6498980522 -0.016204871237 0
          6.8595318794 0.23328857124 0 0 0 0
          5.4935483932 0.050679322332 0 5.4969620705 0.076943814754 0
          6.5059113503 0.13939812779 0 7.6662282944 -0.0097092781216 0
          7.4256620407 0.128387779 0 2.4493944645 0.085835948586 0
          7.0465898514 0.19865813851 0 5.4841308594 -0.0240441598 0
          6.0353064537 0.0088176466525 0 3.2107591629 0.0091347089037 0
          6.21205616 0.11683887988 0 5.1782984734 0.031683351845 0
          6.462243557 0.19935278594 0 4.3776750565 0.054381027818 0
          7.2691583633 0.18933953345 0 5.4028806686 -0.01531627588 0
          6.0149431229 0.063713811338 0 6.8077602386 0.14942722023 0
          6.7997570038 0.16328348219 0 5.1958618164 0.033459741622 0
          7.2043414116 0.0055412231013 0 5.4658799171 0.0093948505819 0
          7.4634208679 -0.11367178708 0 0 0 0
          4.5949912071 0.090913005173 0 1.933360815 0.060565244406 0
          6.3589754105 0.17008374631 0 5.9166603088 0.057974673808 0
          5.9992275238 0.10739220679 0 2.6833879948 -0.01444940269 0
          7.1564617157 0.1730709374 0 4.4528989792 0.026318963617 0
          7.5336146355 -0.094105765224 0 7.3436355591 0.080650158226 0
          3.8603174686 0.028981141746 0 5.3206162453 0.032236769795 0
          6.5593056679 0.090742573142 0 4.7901620865 0.00065103324596 0
          4.0747456551 0.037657741457 0 6.2983050346 0.10613349825 0
          5.9284300804 0.11033755541 0 6.5873060226 0.021518182009 0
          4.1565494537 0.049104813486 0 5.3667888641 0.047200582922 0
          4.4261951447 0.037834364921 0 7.2377290726 0.12140422314 0
          5.5797395706 -0.0064226062968 0 6.9363803864 -0.11799804866 0
          7.0300579071 0.10390155762 0 2.3471045494 0.023434452713 0
          3.5885198116 0.095259800553 0 0 0 0
          4.4829025269 0.044806290418 0 7.3450040817 -0.086638219655 0
          5.8836598396 0.087444677949 0 3.30179286 -0.0016582163516 0
          6.2704987526 0.0079075526446 0 3.6558318138 0.046912703663 0
          7.180170536 -0.21886974573 0 5.3054308891 0.055375572294 0
          4.324432373 -0.018778767437 0 7.1851668358 0.090538881719 0
          7.2039732933 0.0038334736601 0 5.1817865372 -0.056086543947 0
          6.8303346634 0.0075780451298 0 4.3502225876 0.039508897811 0
          7.2549548149 -0.21937198937 0 1.923089385 -0.0062978533097 0
          5.9919834137 0.032088302076 0 3.4808316231 0.064351946115 0
          3.1783323288 0.082145452499 0 5.3126544952 0.057534419 0
          6.2808222771 -0.05843937397 0 5.9444918633 -0.063782073557 0
          4.4036917686 0.038662645966 0 3.4774963856 0.066458776593 0
          7.1244773865 0.030706351623 0 6.7235760689 -0.17879197001 0
          2.4405999184 -0.021857997403 0 7.1347193718 0.0039669289254 0
          7.2248549461 -0.13354088366 0 0 0 0
          3.084249258 -0.01252277568 0 3.4386162758 0.058690782636 0
          2.9273507595 0.043708138168 0 4.4750256538 0.035747144371 0
          6.5582408905 -0.088999524713 0 7.0125570297 -0.23192413151 0
          2.7937393188 0.03753580153 0 5.3683462143 0.025822760537 0
          4.7452287674 -0.08756724745 0 3.7572853565 -0.046846695244 0
          5.6330142021 -0.11214778572 0 7.1301198006 -0.018800854683 0
          3.5002663136 0.052929099649 0 7.1109185219 -0.030968036503 0
          5.7529616356 -0.029359864071 0 1.855926156 -0.038434483111 0
          7.155166626 -0.19440025091 0 2.7345311642 0.069022789598 0
          7.041800499 -0.10127145052 0 2.6692585945 -0.038474328816 0
          6.0597372055 -0.10379315168 0 4.4112439156 0.024327823892 0
          2.7241516113 0.067110478878 0 6.5389575958 -0.18045036495 0
          3.4771711826 0.050315555185 0 6.195792675 -0.14867152274 0
          7.0877752304 0.001767097041 0 7.1390757561 -0.10496477038 0
          7.1623191833 -0.091409996152 0 2.2031180859 0.0054736272432 0
          0 0 0 2.4991474152 -0.05663112551 0
          2.7215511799 0.067159175873 0 6.8316092491 -0.18274086714 0
          2.0160894394 -0.064413808286 0 3.4969878197 0.038486298174 0
          2.1376826763 0.016144534573 0 5.6405711174 -0.16600477695 0
          4.5990400314 -0.11551240832 0 4.9874286652 -0.034987092018 0
          7.1610784531 -0.051386695355 0 2.1163449287 0.025212410837 0
          7.1103005409 0.016226591542 0 4.3095493317 0.0070244967937 0
          2.7095935345 0.057597924024 0 5.435860157 -0.081090785563 0
          6.9159283638 -0.20913442969 0 1.8164777756 -0.029744155705 0
          5.8239870071 -0.10517992824 0 7.0423455238 -0.11073678732 0
          2.0250425339 0.028691746294 0 7.1142883301 -0.19867964089 0
          3.6124546528 -0.079149410129 0 3.5098547935 0.030730269849 0
          1.958617568 0.033298913389 0 6.2165288925 -0.13229432702 0
          6.4938373566 -0.22075805068 0 2.6441926956 0.052946124226 0
          7.1407737732 0.051046356559 0 7.2298207283 -0.14299876988 0
          7.1249895096 0.0095982626081 0 0 0 0
          0 0 0 0 0 0
          0 0 0 2.4908144474 -0.064087584615 0
          1.8969330788 0.023519167677 0 0 0 0
          6.5791444778 -0.096797764301 0 2.6721627712 0.0346920304 0
          3.9769239426 -0.030272522941 0 5.3413586617 -0.16288422048 0
          3.4313976765 0.0024265646935 0 4.5506792068 -0.055863838643 0
          4.3967781067 -0.1239746362 0 0 0 0
          5.1394286156 -0.093411624432 0 7.2832551003 -0.018728738651 0
          7.1973176003 -0.23523505032 0 1.8380963802 0.018764082342 0
          7.1481995583 0.12189243734 0 1.730330348 -0.027385329828 0
          3.5219597816 -0.078019946814 0 5.5224370956 -0.085440203547 0
          6.8549418449 -0.0026246949565 0 0 0 0
          6.1421122551 -0.2330365032 0 6.9780387878 -0.28591328859 0
          0 0 0 5.9110989571 -0.064018383622 0
          1.7047072649 0.015342692845 0 0 0 0
          7.0251545906 0.11700901389 0 7.2457275391 0.15685378015 0
          2.5368263721 0.025251200423 0 7.4116272926 -0.10738577694 0
          2.4765343666 -0.056332170963 0 3.6561157703 -0.051207046956 0
          0 0 0 6.2782473564 -0.0017865323462 0
          4.8856201172 -0.088134601712 0 4.11743927 -0.048542167991 0
          1.7420368195 0.0048506124876 0 4.2290043831 -0.10609699041 0
          2.8882086277 -0.0013155314373 0 1.6718617678 -0.029709292576 0
          7.4412741661 0.093981131911 0 0 0 0
          7.1161160469 0.22211588919 0 7.4102864265 -0.19619105756 0
          5.1955194473 -0.033713016659 0 6.0112400055 -0.20104876161 0
          3.5311815739 -0.073496237397 0 6.5799708366 0.10034044832 0
          5.1178994179 -0.13903163373 0 6.8179717064 -0.24303002656 0