<?xml version="1.0"?>
<VTKFile type="PolyData" version="0.1" byte_order="LittleEndian" compressor="vtkZLibDataCompressor">
  <PolyData>
    <Piece NumberOfPoints="1041" NumberOfVerts="0" NumberOfLines="0" NumberOfStrips="0" NumberOfPolys="1940">
      <PointData>
        <DataArray type="Float32" Name="PRESSURE" format="ascii" RangeMin="-5.0602068901" RangeMax="0.26610147953">
          0 0.26610147953 0 0.094102613628 0.20254409313 0
          0.065570496023 0.031421944499 0.17433336377 0.053396522999 0.14924789965 0
          0.0074864872731 -0.016791749746 0.060016207397 -0.053901009262 0.0045747393742 0
          -0.1556417942 -0.089462824166 -0.087456971407 -0.18149527907 -0.064376808703 -0.26842448115
          0 -0.24065510929 -0.13651120663 -0.33258935809 -0.07475028187 -0.42215850949
          -0.048202876002 -0.24941727519 0 -0.50106960535 -0.41942983866 -0.2258207351
          -0.15814694762 -0.50436651707 -0.080047942698 -0.57344937325 -0.66771280766 -0.054883975536
          -0.72600889206 0 -0.53619378805 -0.66560584307 -0.42912429571 -0.70083725452
          -0.29310652614 -0.16592977941 -0.73510414362 -0.097456336021 -0.043099675328 -0.80578732491
          -0.43925282359 -0.89197188616 -0.29470402002 -0.78882569075 0 -0.85384309292
          -0.65630090237 -0.20472237468 -0.84352952242 -0.93994235992 -0.11105131358 -0.94564086199
          -0.051808804274 -0.45350024104 -1.0582296848 -0.66759121418 -0.21644636989 -0.32908219099
          -1.0012255907 0 -1.0731865168 -0.90522742271 -1.0513811111 -1.0960137844
          -0.12832562625 -1.0520275831 -1.1111189127 -0.064891457558 -0.35315841436 -0.70594644547
          -0.48563972116 -1.2038978338 -0.92189800739 -1.1180969477 0 -1.180325985
          -0.24340651929 -1.11168468 -1.1733658314 -1.2376506329 -1.2249712944 -1.2184144258
          -1.2085703611 -0.029436986893 -0.12837029994 -0.33936801553 -0.4421800375 -0.86372703314
          -0.65704250336 -1.2648839951 -1.3232096434 -1.0754791498 -1.2096949816 0
          -1.2250573635 -1.2737035751 -1.2881356478 -0.23223868012 -1.2913075686 -1.3616416454
          -0.07547737658 -0.86507588625 -1.0502912998 -0.67084264755 -0.45782679319 -1.2657165527
          -1.3503319025 -1.3232631683 -1.1751725674 -0.11949445307 -1.396792531 0
          -1.3434915543 -1.2400743961 -0.35706400871 -1.4582871199 -1.3020256758 -0.070765390992
          -1.0272173882 -1.2697890997 -0.89228272438 -1.2090439796 -1.0998876095 -0.24529463053
          -0.75038069487 -1.1975736618 -1.3801385164 0 -1.3045370579 -1.3630919456
          -0.11582012475 -0.54725843668 -1.3105171919 -1.2529038191 -1.1359719038 -0.33607497811
          -1.1375558376 -1.5743339062 -0.050370085984 -1.2096296549 -0.21621580422 -1.2075181007
          -0.79528206587 -1.3307970762 -1.1996634007 -1.5596210957 0 -1.0689920187
          -1.2776299715 -0.092140890658 -1.2576550245 -1.3921830654 -1.2654460669 -1.8782688379
          -0.63020515442 -1.4519752264 -0.058417294174 -1.2561160326 -1.2828365564 -0.16835269332
          -1.2444745302 -0.34484061599 -1.3614827394 -1.2643425465 -1.3228468895 -1.6255894899
          0 -1.2977759838 -1.0276212692 -1.2728706598 -1.3041708469 -1.5916688442
          -1.3235881329 -0.10895755887 -0.58005744219 -1.5480927229 -1.2876542807 -0.068543545902
          -1.2523435354 -1.5102776289 -1.3553012609 -0.23564945161 -0.85964721441 -1.3875296116
          -1.3374534845 -1.4626421928 -1.3215126991 -0.46891474724 -1.3223181963 -1.7079191208
          0 -1.6145358086 -1.4044821262 -1.4235172272 -1.1296980381 -1.7221516371
          -1.3985046148 -0.11590863019 -1.3747483492 -1.3738870621 -1.6834800243 -0.68563199043
          -1.4405316114 -1.6507350206 -0.040962047875 -1.4130058289 -1.3155050278 -1.3865176439
          -0.15957283974 -0.95982170105 -0.34045252204 -1.4232797623 -1.6300359964 -1.3279094696
          -1.4970771074 -1.7300106287 0 -1.6409196854 -0.55447155237 -1.4004782438
          -1.4236841202 -1.8155361414 -1.614022851 -0.016102150083 -1.3310018778 -1.191437006
          -1.8390311003 -1.5062506199 -1.4595724344 -1.8314012289 -1.6531863213 -0.82959330082
          -1.376531601 -1.7716913223 -1.3932135105 -0.28470173478 -0.023442832753 -1.3483235836
          -1.3528279066 -1.838578105 -1.0164660215 -0.4363129437 -1.5289229155 -1.3198289871
          -1.9176537991 -1.644322753 -1.4500799179 -1.8234505653 0 -0.6170411706
          -0.11585512757 -1.2044042349 -1.8738971949 -1.3633856773 -0.038894839585 -1.4572496414
          -2.0933697224 -2.0975382328 -2.0404326916 -1.633063674 -0.83887374401 -1.5331716537
          -1.3607535362 -2.0196075439 -1.4336894751 -0.25320503116 -1.8456716537 0.05960142985
          -1.3330538273 -1.360255003 -0.47681462765 -1.3347871304 -1.0559248924 -2.1180565357
          -1.6391881704 -1.7986952066 -1.5463365316 0 -2.0568876266 -2.1518855095
          -0.69314819574 -1.3991872072 0.12909220159 -1.1795010567 0.064928039908 -2.2769885063
          -2.3304424286 -1.453985095 -1.7763009071 -0.09576716274 -1.6668372154 -1.4056907892
          -0.88501906395 -1.3298949003 -2.1182556152 -2.2115037441 -1.3415852785 -1.5392462015
          -0.34535080194 -2.0421564579 -2.3288455009 -1.3180336952 -0.56771582365 -1.3764868975
          -2.2461476326 -1.0987869501 -1.8036456108 -1.9961791039 -1.6915516853 0
          -2.1975669861 0.13420416415 0.043599616736 -2.2971558571 -0.7968941927 0.047621101141
          -1.5150797367 -1.2092034817 -1.4082833529 -2.4614448547 -1.3746136427 -1.4509557486
          -2.4770448208 -0.15430545807 -1.3951911926 -1.9691991806 -2.1504325867 -0.94636869431
          -1.8458281755 -2.3136577606 -2.4249017239 -1.3945621252 -1.7094359398 -0.39106047153
          -2.4008002281 -2.3172030449 -0.62482655048 -1.515571475 -1.1711376905 -2.2823736668
          -1.9013861418 -2.0024940968 -1.3825684786 -2.1088182926 -2.3559062481 -1.39288342
          -0.8302899003 -1.7096107006 -1.441557169 -1.5313873291 -1.2540082932 -2.4856572151
          -1.5085220337 -2.3528428078 -2.0992083549 -0.99251621962 -2.1068980694 -2.2044284344
          -1.5412157774 -2.4445466995 -2.433647871 -1.9462674856 -2.4502792358 -2.3641617298
          -1.7193595171 -1.1943531036 -2.1528847218 -1.3598604202 -2.3091375828 -2.1083786488
          -2.3368880749 -2.1595816612 -1.5077223778 -1.5848653316 -1.9271626472 -2.2683267593
          -2.4208400249 -1.6022442579 -1.5197130442 -1.1729676723 -2.3415591717 -2.320622921
          -2.119890213 -2.2063891888 -2.2489271164 -1.7481156588 -2.1590266228 -2.3128972054
          -2.3436613083 -1.6055812836 -1.4707970619 -1.941814065 -2.3109257221 -2.2157928944
          -2.2570252419 -2.2888686657 -2.2596766949 -1.5659105778 -2.1665334702 -1.632373333
          -2.3079707623 -2.1954753399 -1.7395149469 -1.5483605862 -2.1262776852 -1.7876240015
          -2.2370736599 -2.2638881207 -2.2344717979 -2.2373549938 -2.2255809307 -2.3649799824
          -1.9540292025 -2.0858960152 -2.1098690033 -1.5781285763 -1.6739604473 -2.014298439
          -2.1809828281 -2.1401176453 -2.0716745853 -2.1246430874 -1.7851127386 -2.3346643448
          -2.1560995579 -2.1212115288 -2.1378083229 -2.3518402576 -1.9193021059 -2.0173082352
          -1.7754381895 -1.9963446856 -2.0984017849 -2.2175574303 -2.4350948334 -2.0548026562
          -2.3890991211 -2.0104820728 -1.9271168709 -1.7018259764 -1.7999055386 -2.1341278553
          -2.0044379234 -2.2980241776 -1.7340905666 -2.0225305557 -1.9343878031 -2.0620167255
          -2.2780404091 -1.8355152607 -1.894724369 -1.9756314754 -1.8074803352 -1.8840088844
          -2.4121258259 -1.9652158022 -1.8106564283 -2.4139456749 -2.1106626987 -1.9001617432
          -2.2958030701 -1.7787839174 -1.7953737974 -1.8768745661 -2.3191409111 -1.741877079
          -1.920789361 -1.7837760448 -1.8551266193 -2.1396024227 -1.672932744 -2.1458623409
          -1.6743190289 -1.7907902002 -1.8836619854 -1.856793642 -1.6871446371 -2.0460340977
          -1.7289097309 -1.7735815048 -2.3536298275 -2.2874317169 -2.331448555 -1.6159951687
          -2.1614711285 -1.8670300245 -1.6915711164 -1.8816763163 -2.2348270416 -1.5406697989
          -1.7930063009 -1.7534322739 -1.7547779083 -1.5783276558 -2.1614177227 -1.592749238
          -1.7851291895 -1.7780684233 -1.6452121735 -2.0397758484 -2.2337200642 -1.656822443
          -1.7262111902 -1.8501102924 -2.2793259621 -2.2123367786 -1.7105326653 -1.5195709467
          -2.1177890301 -2.2462263107 -1.7721886635 -1.5237698555 -1.6650598049 -1.6816065311
          -1.6902220249 -1.6778504848 -2.1289904118 -1.6397695541 -1.9177066088 -1.5996930599
          -1.7850669622 -2.1928002834 -1.7148704529 -1.5871345997 -1.8268312216 -2.0219111443
          -2.246352911 -1.5915482044 -1.680315733 -1.6205095053 -1.6776082516 -2.1199936867
          -1.8107396364 -2.2340731621 -1.7082861662 -1.7534371614 -1.5287548304 -1.6061090231
          -1.7055413723 -1.7787213326 -2.0925810337 -2.1747407913 -1.8154662848 -1.7105028629
          -1.8632557392 -1.8705472946 -1.7792994976 -2.1870720387 -1.9340002537 -1.4998869896
          -1.77516675 -1.527762413 -1.7065354586 -1.8425215483 -1.875198245 -1.9625815153
          -1.8458256721 -2.0932490826 -1.441706419 -2.0386168957 -1.9307322502 -1.6567811966
          -1.6089599133 -2.050151825 -1.980404973 -2.0093195438 -1.8065755367 -2.037760973
          -2.1569600105 -1.4904776812 -1.4762940407 -2.3096475601 -1.806434989 -1.798840642
          -2.0605425835 -1.9151386023 -2.374809742 -1.9440429211 -1.9910396338 -1.9589209557
          -2.0921895504 -2.2226653099 -2.2150182724 -1.6016860008 -2.1523435116 -1.4960061312
          -1.7323809862 -2.3416383266 -2.1276245117 -2.1450726986 -2.5149655342 -1.5944129229
          -1.4761459827 -1.8049048185 -2.5719921589 -1.6870322227 -2.0531747341 -1.8325477839
          -2.095236063 -2.4889388084 -2.0271356106 -2.234360218 -2.1538624763 -2.2734484673
          -2.2749147415 -2.3850953579 -2.4314959049 -1.5742819309 -1.94051373 -1.5490064621
          -1.6245882511 -2.5963923931 -2.3715071678 -2.332351923 -1.7229181528 -2.6439549923
          -1.7406694889 -1.8036820889 -2.6279604435 -1.5807763338 -2.1412801743 -2.4155814648
          -2.0805387497 -2.2021667957 -2.3222668171 -2.3680324554 -2.5116841793 -2.4102575779
          -2.5840387344 -2.5619473457 -2.4115478992 -1.6220934391 -1.6961796284 -2.2047467232
          -1.7334780693 -2.5853354931 -1.6848603487 -2.6418840885 -2.5934369564 -2.4425978661
          -2.0544509888 -2.1494574547 -2.5084257126 -2.2634990215 -2.0563774109 -1.7508945465
          -2.3434422016 -2.5662271976 -2.5873804092 -2.4333651066 -2.4510219097 -1.7170352936
          -2.4644076824 -1.7399789095 -1.6750205755 -1.9476789236 -2.6871533394 -2.4023358822
          -2.130541563 -2.4378864765 -2.4515194893 -2.451114893 -2.7166056633 -2.4436233044
          -2.219468832 -2.4264388084 -2.2778925896 -2.1221883297 -2.3898210526 -2.3398959637
          -1.8961941004 -2.566981554 -1.822073102 -2.3887798786 -2.6776790619 -2.2851445675
          -1.7244570255 -2.3421711922 -2.6245331764 -2.1298260689 -2.2500348091 -2.3609521389
          -2.5354590416 -2.3463699818 -2.6542458534 -2.305614233 -2.4335718155 -2.3588969707
          -2.254752636 -2.2503700256 -2.393335104 -2.2518427372 -2.0055377483 -1.8459669352
          -2.4698872566 -2.2439513206 -2.0996108055 -2.6204950809 -2.329652071 -2.3042123318
          -2.3487808704 -2.4845833778 -2.2617599964 -2.3588171005 -2.2811293602 -2.3390994072
          -2.5282859802 -2.1745340824 -2.5127165318 -2.0260009766 -2.3307924271 -2.3395700455
          -2.3419654369 -2.1936488152 -2.3155090809 -2.4399859905 -2.2445335388 -2.3874936104
          -2.225104332 -2.241724968 -2.3136217594 -2.5125291348 -2.3620302677 -2.3979790211
          -2.324940443 -2.4545550346 -2.3706052303 -2.2879493237 -2.203097105 -2.4086666107
          -2.4552469254 -2.3902423382 -2.2978980541 -2.469704628 -2.4094190598 -2.4414060116
          -2.4119541645 -2.3789098263 -2.3573057652 -2.2776577473 -2.3255972862 -2.4218912125
          -2.3469743729 -2.4034836292 -2.6290392876 -2.3608045578 -2.4518771172 -2.5078806877
          -2.3391780853 -2.3791663647 -2.3152544498 -2.4970088005 -2.3303945065 -2.2613544464
          -2.6797766685 -2.4984323978 -2.6534693241 -2.3330607414 -2.5588376522 -2.479501009
          -2.4593658447 -2.5248961449 -2.3243243694 -2.5437185764 -2.260068655 -2.248800993
          -2.8820419312 -2.2585172653 -2.772298336 -2.5763819218 -2.2372462749 -2.4336512089
          -2.6431779861 -2.5746867657 -2.9600653648 -2.9647521973 -2.5803537369 -2.3597588539
          -2.7266390324 -2.2555682659 -2.5443980694 -2.8831424713 -2.6930882931 -2.2710881233
          -2.3034455776 -2.2933905125 -2.2780025005 -2.6970193386 -3.1639640331 -3.1434962749
          -2.337954998 -2.5018529892 -2.7071051598 -2.7073659897 -3.1059296131 -2.6996078491
          -3.2660460472 -3.2858324051 -2.4743173122 -3.3576779366 -2.9725267887 -2.3479933739
          -2.290554285 -2.3573055267 -2.6969695091 -2.3938274384 -2.9048535824 -3.4720416069
          -2.4285478592 -3.6350443363 -2.9171028137 -2.657617569 -2.8840632439 -2.5246140957
          -3.672870636 -3.6237983704 -3.4760477543 -2.8674576283 -3.489231348 -2.4771344662
          -2.358979702 -2.4807875156 -2.6507384777 -3.2890665531 -2.9130325317 -2.602889061
          -3.1390299797 -3.6438279152 -3.9004864693 -2.9593980312 -2.6981272697 -3.08928442
          -4.0842580795 -4.1671433449 -3.0472364426 -2.6756329536 -2.5261752605 -3.727537632
          -2.8604671955 -3.5862634182 -3.7972929478 -2.726149559 -3.5123906136 -3.0838217735
          -3.1027932167 -3.2782258987 -3.5976641178 -3.2165215015 -3.9634203911 -3.2247259617
          -4.2123208046 -3.1987702847 -3.0287652016 -3.1466100216 -4.0589613914 -2.9043157101
          -2.7504284382 -3.3958950043 -3.8371124268 -3.1980969906 -3.4658763409 -3.0151236057
          -3.5191197395 -3.9103090763 -3.621846199 -3.3512272835 -3.6584839821 -3.4513127804
          -3.2539365292 -3.3250439167 -3.5960206985 -3.7683069706 -2.9941298962 -3.8492937088
          -3.798623085 -3.1825344563 -3.3640036583 -3.3164479733 -3.5475182533 -3.0833785534
          -3.9151740074 -3.6578373909 -3.4064259529 -3.3599648476 -2.8893792629 -3.5594732761
          -2.9158649445 -4.1787433624 -2.9337110519 -2.7312424183 -3.267693758 -3.0430364609
          -3.8685898781 -4.1818885803 -3.5179424286 -3.365499258 -3.2819647789 -3.7221512794
          -4.051053524 -2.5978848934 -3.1365146637 -2.4040439129 -3.3022918701 -4.1741089821
          -3.1273419857 -2.2172355652 -2.1469380856 -3.6213872433 -2.2279429436 -2.2551164627
          -3.524923563 -4.0410051346 -3.6719141006 -2.4351408482 -3.6543080807 -3.0918080807
          -3.7094225883 -2.7873973846 -2.2014245987 -3.5438382626 -3.2847011089 -2.064776659
          -2.8973546028 -2.0058934689 -3.5810716152 -2.0483756065 -3.1302061081 -3.6091535091
          -2.0819971561 -2.1207594872 -3.5677411556 -3.5466434956 -3.0209984779 -2.5765964985
          -2.0448007584 -3.4318532944 -2.8802959919 -2.3252468109 -2.5231268406 -2.1237933636
          -2.7253050804 -2.6604650021 -2.1397047043 -2.2068946362 -2.1844248772 -2.2325327396
          -2.4291021824 -2.1961598396 -3.4418768883 -2.2443196774 -2.6471037865 -3.2084195614
          -2.1116230488 -1.9924755096 -2.6835360527 -2.8371558189 -2.3106899261 -2.180876255
          -2.7152895927 -2.3947520256 -2.4916167259 -2.1810765266 -2.0652418137 -2.1074178219
          -2.2788233757 -1.6174147129 -2.3340642452 -2.3521270752 -3.0263192654 -2.3891625404
          -2.7102608681 -2.0593776703 -2.5000331402 -2.600651741 -2.1088414192 -2.327930212
          -2.3594710827 -2.6567327976 -2.0410690308 -3.2567915916 -3.8182177544 -2.3456382751
          -2.257901907 -2.2199752331 -2.0161657333 -2.2588739395 -2.366373539 -2.4086849689
          -2.2057070732 -2.5276114941 -2.4737350941 -2.1441662312 -2.6370048523 -2.2415456772
          -2.276620388 -3.8049519062 -2.288236618 -2.0562064648 -2.4035847187 -5.0602068901
          -3.2386095524 -2.2240273952 -3.5613894463 -2.3421514034 -1.7770822048 -2.2011163235
          -2.1758959293 -2.6067047119 -3.4988071918 -2.1247572899 -5.0086355209 -2.3955209255
          -2.2034292221 -2.3991239071 -2.351221323 -2.2925488949 -2.1054003239 -2.1967523098
          -2.3313553333 -2.6364398003 -2.4651508331 -2.2882454395 -2.4083268642 -2.1919522285
          -2.3805127144 -2.2807853222 -2.2363688946
        </DataArray>
        <DataArray type="Float32" Name="VELOCITY" NumberOfComponents="3" ComponentName0="X-VELOCITY" ComponentName1="Y-VELOCITY" ComponentName2="Z-VELOCITY" format="ascii" RangeMin="0" RangeMax="8.2165139624">
          0 0 0 0 0 0
          2.9184200764 -0.0090308636427 0 3.8612318039 0.075440943241 0
          2.8008985519 0.12013679743 0 4.2164244652 0.063008211553 0
          0 0 0 3.9533467293 -0.12717187405 0
          3.095947504 0.030820546672 0 3.8006126881 -0.05573733896 0
          0 0 0 4.065369606 -0.16416199505 0
          3.9816243649 -0.12714974582 0 4.2229299545 -0.14427806437 0
          3.0321640968 -0.010813766159 0 3.7134385109 -0.079397559166 0
          0 0 0 4.4934096336 -0.17806082964 0
          3.5132844448 -0.10319779068 0 4.499358654 -0.16510011256 0
          4.1582117081 -0.1842418015 0 2.9182732105 -0.041178643703 0
          4.8456354141 -0.14786317945 0 0 0 0
          5.2065587044 -0.16883291304 0 3.7790224552 -0.19616934657 0
          4.8483181 -0.15842923522 0 3.4366662502 -0.13921998441 0
          5.3851790428 -0.12058320642 0 2.8693184853 -0.047712020576 0
          5.6356844902 -0.096939101815 0 4.7016434669 -0.19332227111 0
          5.8623528481 -0.08584869653 0 0 0 0
          4.2403812408 -0.21711198986 0 5.3675055504 -0.18514743447 0
          5.6687254906 -0.15623171628 0 3.6980273724 -0.20209610462 0
          5.9428071976 -0.10211642087 0 3.3217492104 -0.14506347477 0
          2.7792344093 -0.036392282695 0 6.1526966095 -0.042970690876 0
          0 0 0 6.2922091484 -0.023412993178 0
          5.0440707207 -0.25033268332 0 4.308365345 -0.22538745403 0
          5.5703935623 -0.24000994861 0 3.7050068378 -0.21460330486 0
          6.0032038689 -0.21632559597 0 6.2710576057 -0.14453856647 0
          3.2400434017 -0.14059452713 0 6.4191207886 -0.050147928298 0
          6.4773206711 0.012970753014 0 2.6717970371 -0.017949920148 0
          6.169356823 -0.27184399962 0 3.5991644859 -0.19363681972 0
          6.4510655403 -0.22885362804 0 0 0 0
          6.5701913834 0.03098532185 0 4.3605389595 -0.21876879036 0
          5.8881893158 -0.27727758884 0 6.5848455429 -0.12018297613 0
          5.3190412521 -0.24635563791 0 3.0925059319 -0.13755129278 0
          6.6309309006 -0.0071088736877 0 2.4008951187 -0.023377273232 0
          6.6517796516 0.03833450377 0 6.5983724594 -0.28399202228 0
          5.1657571793 -0.20604197681 0 6.380666256 -0.29720267653 0
          6.6897101402 -0.081641346216 0 6.711180687 -0.19418647885 0
          0 0 0 6.6918921471 0.037507910281 0
          3.6011707783 -0.15969699621 0 6.1515641212 -0.25796896219 0
          3.0225534439 -0.11560757458 0 4.4214701653 -0.17566277087 0
          6.6724410057 0.008132009767 0 5.846830368 -0.1991814822 0
          2.3642597198 -0.043846156448 0 6.6993832588 0.022885164246 0
          6.8039455414 -0.11572481692 0 6.8031020164 -0.27089473605 0
          6.8706231117 -0.20980916917 0 5.4782662392 -0.13514685631 0
          6.6711788177 -0.23215770721 0 0 0 0
          6.732213974 0.015103087761 0 3.5019111633 -0.13886462152 0
          6.7384095192 0.0042271488346 0 6.45008564 -0.1573882699 0
          2.9682967663 -0.10597798973 0 5.117828846 -0.094497174025 0
          4.2461409569 -0.12420295924 0 6.1475725174 -0.090691015124 0
          2.2775530815 -0.032834038138 0 6.7255439758 0.012105504982 0
          6.7302823067 0.019922092557 0 6.8510088921 0.030863037333 0
          6.9991550446 -0.038861826062 0 7.098300457 -0.15406154096 0
          7.1275773048 -0.11166770011 0 3.591262579 -0.12560670078 0
          5.8715372086 -0.029762849212 0 6.9745330811 -0.091586478055 0
          0 0 0 6.7036895752 0.0083734616637 0
          6.733985424 -0.012278664857 0 2.923664093 -0.091382183135 0
          5.3383708 -0.032868307084 0 6.7678489685 0.10537476838 0
          6.5310459137 0.059647087008 0 2.2123990059 -0.053976379335 0
          6.6416044235 0.0080494461581 0 7.3345322609 -0.018443536013 0
          7.3102073669 -0.036350637674 0 7.1904549599 0.084917746484 0
          6.9269723892 0.18470951915 0 4.5902757645 -0.05561748147 0
          6.2372694016 0.087052926421 0 3.5714042187 -0.10018255562 0
          7.1776409149 0.042399238795 0 6.6336627007 0.062175046653 0
          0 0 0 6.5644869804 0.014565745369 0
          2.9349637032 -0.06227170676 0 6.973279953 0.13073736429 0
          6.6978373528 0.23907443881 0 2.3410460949 -0.039416808635 0
          5.8147320747 0.050118628889 0 6.4850301743 0.026791220531 0
          7.4254193306 0.026199359447 0 6.8273816109 0.1794745326 0
          7.2783060074 0.12033576518 0 4.4172759056 -0.077062539756 0
          7.416572094 0.02132787928 0 6.5664620399 0.16294980049 0
          6.9641318321 0.27022236586 0 7.2788524628 0.099719449878 0
          0 0 0 6.307826519 0.053983207792 0
          5.321390152 -0.018755720928 0 3.2195534706 -0.078759215772 0
          6.3843402863 0.097315773368 0 6.6794018745 0.3453707099 0
          7.1089019775 0.18752978742 0 6.7922692299 0.20645673573 0
          7.3982315063 -0.017523771152 0 6.4764790535 0.29072338343 0
          7.2545747757 0.062553465366 0 2.2101767063 -0.059682801366 0
          6.1904416084 0.071168832481 0 6.2720370293 0.091014832258 0
          6.2531237602 0.19931654632 0 7.3578062057 -0.019315842539 0
          6.6141967773 0.35014283657 0 4.7504405975 -0.10468591005 0
          7.2011876106 0.080848924816 0 0 0 0
          5.9191389084 0.11636749655 0 6.8344550133 0.24465808272 0
          7.0499043465 0.20525942743 0 6.0333256721 0.12921766937 0
          6.01693964 0.0066578886472 0 3.0009829998 -0.031134031713 0
          6.8110647202 0.12687683105 0 2.0474877357 -0.049395047128 0
          6.2327070236 0.3711232841 0 3.676525116 -0.1368856132 0
          5.7147140503 0.12218534201 0 7.2359638214 -0.10362609476 0
          6.9963393211 0.16231937706 0 5.8251013756 0.19800804555 0
          6.5917620659 0.039476778358 0 5.9269804955 0.28498062491 0
          4.7025284767 -0.12301775068 0 7.2097706795 -0.11807119101 0
          6.7663064003 0.067800328135 0 0 0 0
          5.3406944275 0.18696816266 0 5.660194397 -0.073671735823 0
          6.1899847984 0.33001977205 0 7.0663189888 0.0060171834193 0
          6.9347872734 0.1175808683 0 2.8119688034 0.054512433708 0
          6.9504055977 0.036857038736 0 5.3509221077 0.1663403213 0
          5.699452877 0.32513999939 0 3.0518813133 -0.15807640553 0
          6.3591957092 -0.072764866054 0 5.0573682785 0.1852850467 0
          6.2318482399 0.19589428604 0 4.2735490799 -0.15082168579 0
          6.9546647072 0.030009321868 0 5.2335028648 0.22449754179 0
          5.6450405121 0.33173334599 0 6.7660226822 -0.12079942971 0
          6.7797112465 -0.081277303398 0 5.2962341309 -0.1677441746 0
          7.0370759964 -0.23138697445 0 5.2278776169 0.28301328421 0
          7.0467638969 -0.18170976639 0 0 0 0
          4.5574612617 0.23188529909 0 2.2818899155 0.071558408439 0
          6.2504749298 0.02801604569 0 6.0556588173 -0.16686710715 0
          5.6504683495 0.25598031282 0 2.6222989559 -0.15291675925 0
          6.9685387611 -0.096330843866 0 4.395304203 0.19332872331 0
          6.9413967133 -0.05201690644 0 6.858438015 0.031496461481 0
          3.6631393433 -0.14086456597 0 5.0512170792 0.29234412313 0
          6.5740704536 -0.19795544446 0 4.786816597 -0.19147440791 0
          4.1661334038 0.16616402566 0 6.3126792908 -0.063094228506 0
          5.6700806618 0.1472376138 0 6.6813664436 -0.18587186933 0
          4.1107201576 0.2302634269 0 5.0565538406 0.26880478859 0
          4.3107409477 0.23779885471 0 6.9336009026 -0.06734521687 0
          5.7036881447 -0.21516287327 0 6.9251027107 -0.22748345137 0
          6.8986911774 -0.2224958092 0 2.3089866638 -0.054825671017 0
          4.0111188889 0.18003760278 0 0 0 0
          4.3016200066 0.27316063643 0 6.8812365532 0.0093943905085 0
          5.7782034874 0.05309824273 0 3.081798315 -0.13199333847 0
          6.2979478836 -0.25444504619 0 3.9997582436 0.15823151171 0
          6.9663176537 -0.15938898921 0 5.0159034729 0.2099558562 0
          4.1912651062 -0.18170775473 0 7.0086274147 -0.19326579571 0
          6.8817362785 0.0050509492867 0 5.2630019188 -0.21539305151 0
          6.7378659248 -0.29959318042 0 4.1420755386 0.24862343073 0
          6.9295716286 -0.029756717384 0 2.2014992237 -0.040202088654 0
          6.0977725983 -0.076882787049 0 3.7632217407 0.22258020937 0
          3.9540071487 0.16356560588 0 5.0924482346 0.15033720434 0
          6.479031086 -0.14125198126 0 5.9915204048 -0.25954452157 0
          4.1617136002 0.22358910739 0 3.6681232452 0.22124582529 0
          7.0107426643 -0.084689863026 0 6.8390460014 -0.14379243553 0
          2.2989673615 -0.11864448339 0 7.0114302635 -0.28794747591 0
          6.9270777702 0.086812987924 0 0 0 0
          4.1575417519 0.0079729612917 0 3.5812692642 0.21683841944 0
          3.7615330219 0.10431788862 0 4.2116923332 0.1915602833 0
          6.490436554 -0.30711942911 0 6.9431829453 -0.0231898278 0
          3.7773382664 0.088840194046 0 5.2648983002 0.058388009667 0
          4.7702145576 -0.18059208989 0 3.4972438812 -0.16218453646 0
          5.6935305595 -0.23032638431 0 7.1354842186 -0.19979174435 0
          3.5494406223 0.2175052911 0 7.014667511 0.092537775636 0
          5.8968939781 -0.059504948556 0 2.0640120506 -0.0573794581 0
          6.9718008041 0.12596228719 0 3.5860893726 0.1237763539 0
          6.9366931915 -0.31300362945 0 3.8039870262 -0.028091389686 0
          6.2862038612 -0.071389809251 0 4.1757597923 0.1505214572 0
          3.5143530369 0.1518689543 0 6.6918783188 -0.028655080125 0
          3.5001056194 0.20565378666 0 6.1716718674 -0.2474719435 0
          7.2069702148 -0.00050284160534 0 7.1636595726 -0.25768107176 0
          7.0148339272 0.22021640837 0 3.1885976791 0.048319738358 0
          0 0 0 2.2858347893 -0.12259357423 0
          3.4347395897 0.16237995028 0 6.8271536827 0.11446233094 0
          2.877086401 -0.10361263156 0 3.4907279015 0.17244210839 0
          3.0515987873 0.0060240579769 0 5.7050223351 -0.16707588732 0
          4.6469841003 -0.13287515938 0 4.9164562225 0.034952864051 0
          7.3638124466 -0.10367388278 0 3.0221128464 0.050081759691 0
          7.1594896317 0.20488601923 0 4.1262302399 0.10360562056 0
          3.3428127766 0.1537913084 0 5.5615820885 -0.011303870939 0
          6.8276553154 -0.24970172346 0 1.9699705839 -0.044379845262 0
          6.0454173088 0.012608828954 0 6.9240765572 0.25628906488 0
          2.8801972866 0.043807510287 0 7.1462035179 -0.23483353853 0
          3.3797540665 -0.11050510406 0 3.4879703522 0.1606221199 0
          2.7592856884 0.055343475193 0 6.3925771713 0.085610888898 0
          6.4469132423 -0.16724987328 0 3.2173378468 0.14569072425 0
          7.394701004 0.097850345075 0 7.4128217697 -0.14478161931 0
          7.032500267 0.31954413652 0 0 0 0
          0 0 0 0 0 0
          0 0 0 2.2601904869 -0.099535115063 0
          2.6388456821 0.047048006207 0 0 0 0
          6.6007285118 0.22045581043 0 3.1700019836 0.12397308648 0
          3.831212759 0.083040460944 0 5.4798641205 -0.053063269705 0
          3.4535915852 0.10494659841 0 4.4461417198 0.076422631741 0
          4.4685082436 -0.058813720942 0 0 0 0
          5.217218399 0.043736100197 0 7.5758876801 -0.013737540692 0
          7.2894124985 -0.12895908952 0 2.5171079636 0.043437696993 0
          7.2213139534 0.26791477203 0 1.8496872187 -0.034676522017 0
          3.3450400829 -0.04931749776 0 5.6951532364 0.097476273775 0
          6.7580361366 0.31933760643 0 0 0 0
          6.1570563316 -0.05246911943 0 6.965616703 -0.065937228501 0
          0 0 0 6.0704135895 0.17591834068 0
          2.2973978519 0.035570409149 0 0 0 0
          6.9202642441 0.32785445452 0 7.4831414223 0.13410642743 0
          2.9902393818 0.10966711491 0 7.6210970879 -0.034362401813 0
          2.2686500549 -0.063266389072 0 3.5908663273 0.07881911844 0
          0 0 0 6.3120837212 0.2729178369 0
          4.8991303444 0.080667451024 0 3.9535076618 0.12991508842 0
          2.2733988762 0.038660574704 0 4.3316779137 0.025086142123 0
          3.1595628262 0.10241872817 0 1.7719382048 -0.031753100455 0
          7.6499819756 0.036320462823 0 0 0 0
          7.1141486168 0.23641602695 0 7.4986629486 0.0014105993323 0
          5.2761731148 0.16778621078 0 6.1187028885 0.077157527208 0
          3.4592273235 0.0059062629007 0 6.514497757 0.31052917242 0
          5.3717727661 0.080911397934 0 6.8348703384 0.10207309574 0
          5.6826386452 0.21534365416 0 0 0 0
          7.4097189903 0.087310642004 0 1.8500996828 0.032341282815 0
          0 0 0 6.746691227 0.25831636786 0
          2.3148541451 -0.033044386655 0 7.701335907 0.00073169334792 0
          3.1826016903 0.050735089928 0 3.5094923973 0.14446443319 0
          5.9697375298 0.26106750965 0 7.3117804527 0.098812572658 0
          4.5429463387 0.079735778272 0 4.283932209 0.12276282907 0
          2.1251649857 0.028715327382 0 0 0 0
          6.0586795807 0.17571656406 0 1.7364338636 -0.01878362149 0
          6.2101798058 0.2470279187 0 7.569272995 -0.018544070423 0
          6.9651851654 0.13050630689 0 4.765358448 0.18177315593 0
          7.6059527397 0.039995599538 0 6.6009721756 0.19574996829 0
          3.5280725956 0.04231011495 0 2.215426445 0.033735796809 0
          0 0 0 5.2226762772 0.1945772469 0