<?xml version="1.0"?>
<VTKFile type="PolyData" version="0.1" byte_order="LittleEndian" compressor="vtkZLibDataCompressor">
  <PolyData>
    <Piece NumberOfPoints="1041" NumberOfVerts="0" NumberOfLines="0" NumberOfStrips="0" NumberOfPolys="1940">
      <PointData>
        <DataArray type="Float32" Name="PRESSURE" format="ascii" RangeMin="-13.148490906" RangeMax="1.4966262579">
          0 0.48056620359 0 0.33696383238 0.50492459536 0
          0.36133557558 0.14393019676 0.60753977299 0.33829271793 0.62645441294 0
          0.19980488718 0.07731641829 0.63902854919 0.38485753536 0.57856476307 0
          0.35672438145 0.1441937685 0.24987840652 0.43718725443 0.080226279795 0.3381292522
          0 0.23112641275 0.14949662983 0.32717913389 0.10245083272 0.2816696763
          0.048701871186 0.15038199723 0 0.19055561721 0.13833656907 0.11546582729
          0.12361326814 0.17525263131 0.082140438259 0.15900239348 0.090797021985 0.045770563185
          0.043400175869 0 0.10265066475 0.062854513526 0.08338701725 0.075299680233
          0.086145676672 0.085651874542 0.11145467311 0.056221164763 0.028715742752 0.075339242816
          0.036683402956 -0.037421554327 0.058406624943 0.12719969451 0 -0.046153005213
          -0.012839633971 0.055356375873 -0.03590285778 -0.11032152921 0.042762830853 -0.058772616088
          0.021904563531 0.026321601123 -0.1930668056 -0.040717713535 0.042231358588 0.040459021926
          -0.16196198761 0 -0.25685840845 -0.095641620457 -0.2063652277 -0.23280955851
          0.038901966065 -0.18169501424 -0.29828387499 0.016608674079 0.030234333128 -0.05621381104
          0.0041218688712 -0.28726682067 -0.13151554763 -0.33218631148 0 -0.41413041949
          0.03574745357 -0.22585059702 -0.43939906359 -0.37329405546 -0.45282113552 -0.32812398672
          -0.48756217957 0.023268107325 0.034997910261 0.029154026881 0.013531019911 -0.13063956797
          -0.056081805378 -0.58849978447 -0.48969590664 -0.2300517112 -0.54623907804 0
          -0.33100658655 -0.72467064857 -0.63540536165 0.053968798369 -0.48950570822 -0.86141461134
          0.0042340657674 -0.15260057151 -0.24994021654 -0.064278431237 0.0028303787112 -0.72621840239
          -0.66430139542 -0.85794633627 -0.35609874129 0.034730318934 -1.0064872503 0
          -0.96144092083 -0.46372717619 0.019540114328 -1.1711503267 -0.92619007826 0.021032806486
          -0.25425598025 -0.67432773113 -0.16302999854 -0.82805615664 -0.36609262228 0.016182221472
          -0.090461358428 -0.48527297378 -1.0533480644 0 -1.178273201 -1.1314623356
          0.042274076492 -0.022348377854 -0.61227673292 -0.85737991333 -0.38609290123 0.024492276832
          -0.29284545779 -1.4271993637 0.028272883967 -1.1077470779 0.037081260234 -0.52907586098
          -0.10380204022 -1.3310286999 -0.66025191545 -1.4096437693 0 -0.20811478794
          -0.81643241644 0.060152184218 -1.4023407698 -1.246584177 -1.1781953573 -2.036280632
          -0.026937382296 -1.4354633093 0.021800417453 -0.48883390427 -1.1010336876 0.06671102345
          -1.3639788628 0.027782283723 -1.4268893003 -0.68902987242 -0.38162907958 -1.4769910574
          0 -1.485860467 -0.18007068336 -0.81619095802 -1.0488102436 -1.4925339222
          -1.3270279169 0.088912397623 -0.009169343859 -1.4680734873 -1.5155870914 0.028401760384
          -0.29737567902 -1.5668166876 -1.2756078243 0.07485511899 -0.10430280864 -0.5563878417
          -1.5234388113 -1.6151975393 -0.69758623838 0.02492685616 -0.86498433352 -1.5567394495
          0 -1.4229239225 -0.46097370982 -1.6290614605 -0.23186077178 -1.614228487
          -1.4913600683 0.091557174921 -1.0338948965 -1.2128146887 -1.6203883886 -0.0081735458225
          -1.645647049 -1.6837089062 0.05881626904 -0.57882630825 -0.36105391383 -0.75270479918
          0.081217825413 -0.12758597732 0.064749702811 -1.4263426065 -1.6972575188 -0.89465206861
          -1.6422519684 -1.4873301983 0 -1.3399105072 0.040488507599 -1.3007329702
          -0.55672138929 -1.6324698925 -1.696444869 0.14878742397 -1.127390027 -0.2812295258
          -1.7056453228 -1.5814634562 -1.4149489403 -1.738283515 -1.7205656767 -0.054788824171
          -1.2950004339 -1.4570789337 -0.75638449192 0.13162708282 0.045001219958 -0.4458052218
          -0.97338110209 -1.7275539637 -0.16182944179 0.12729074061 -1.5732371807 -1.1655271053
          -1.6314709187 -1.6828696728 -1.4557232857 -1.5194033384 0 0.041594579816
          0.26882717013 -0.29588469863 -1.7614756823 -1.3692140579 0.1924431473 -0.72045969963
          -1.7743285894 -1.7734823227 -1.7809752226 -1.6891783476 -0.049858208746 -1.5714198351
          -0.97132068872 -1.7309502363 -1.527202487 0.24347768724 -1.772583127 0.2509098351
          -1.2256580591 -0.50137168169 0.15232644975 -1.4068492651 -0.22264692187 -1.837167263
          -1.6787755489 -1.7742242813 -1.6202825308 0 -1.7911200523 -1.8530076742
          0.034642394632 -1.5734854937 0.36338472366 -0.2960216105 0.42674401402 -1.8740919828
          -1.9218072891 -0.9943870306 -1.7838587761 0.41530328989 -1.6880328655 -0.68630707264
          -0.057517781854 -1.1648825407 -1.8372251987 -1.9755460024 -1.416549921 -1.6717228889
          0.22870533168 -1.839648962 -2.0125768185 -0.54828590155 0.1082932353 -1.5833213329
          -1.9561101198 -0.25679039955 -1.7885210514 -1.870215416 -1.7242852449 0
          -1.9893147945 0.26348170638 0.28976392746 -2.1000065804 -0.039736714214 0.48637244105
          -1.6901661158 -0.3664509356 -0.91358339787 -2.0336606503 -0.69934558868 -1.2074264288
          -2.1182227135 0.36821100116 -1.4082863331 -1.8888915777 -1.9500882626 -0.098457016051
          -1.7886325121 -2.2047309875 -2.219492197 -1.5687731504 -1.7328667641 0.20793929696
          -2.0941824913 -2.0809841156 0.075709745288 -1.698106885 -0.35652008653 -2.2425589561
          -1.7770928144 -1.8886730671 -0.67839598656 -1.9959976673 -2.3488762379 -0.97898870707
          -0.043499268591 -1.7493150234 -1.501996994 -1.4083914757 -0.38977572322 -2.4168522358
          -1.0540312529 -2.4826381207 -2.0098104477 -0.14764836431 -1.8319289684 -2.1378040314
          -1.6570128202 -2.3669826984 -2.5076954365 -1.7748959064 -2.5106430054 -2.3356833458
          -1.7326538563 -0.33883440495 -1.974779129 -0.63792091608 -2.5447590351 -1.8704668283
          -2.6030380726 -2.1290063858 -1.2270522118 -1.489813447 -1.7619793415 -2.3288369179
          -2.7174241543 -1.6124055386 -1.0444152355 -0.27855166793 -2.6806018353 -2.7617983818
          -1.8227459192 -2.1403973103 -1.9457366467 -1.7080643177 -2.3145728111 -2.6240465641
          -2.7953598499 -1.2724449635 -0.888014853 -1.7693892717 -2.8720514774 -2.6008067131
          -2.7800958157 -2.1143956184 -2.8774540424 -1.3706839085 -2.3131122589 -1.4641010761
          -1.9068779945 -1.8291790485 -1.560949564 -1.1409964561 -2.5663745403 -1.6570647955
          -2.9852747917 -3.0461261272 -2.9716136456 -2.3039426804 -3.0333797932 -2.1083450317
          -1.7139664888 -2.530693531 -3.006100893 -1.2306681871 -1.4933093786 -2.1078584194
          -1.7744519711 -3.0130162239 -2.8601267338 -3.2457876205 -1.6040078402 -2.3317234516
          -3.2721393108 -3.1485426426 -2.5424714088 -1.9248667955 -1.6605821848 -2.7918176651
          -1.6223484278 -3.304681778 -3.2384574413 -2.5529940128 -2.1013569832 -3.3274176121
          -2.3409714699 -2.7915422916 -3.3059229851 -1.4454950094 -1.4991496801 -1.7896215916
          -3.369656086 -1.9271845818 -1.5308479071 -3.2820489407 -3.5078721046 -2.7860529423
          -2.5817601681 -3.5487427711 -3.2457699776 -1.6586021185 -3.5965943336 -3.1158082485
          -2.1370913982 -3.5143270493 -1.6088668108 -2.3927004337 -2.8990416527 -3.5795681477
          -2.6334409714 -1.4195395708 -3.5337181091 -3.1148831844 -2.0520625114 -3.7385873795
          -3.5256280899 -3.6943364143 -3.5968291759 -2.9523322582 -1.2978924513 -1.9079592228
          -3.7793467045 -3.4420692921 -3.2552258968 -3.6989479065 -3.7325611115 -1.7655297518
          -3.7431819439 -3.3697633743 -2.5509696007 -2.7775800228 -2.3325183392 -3.8131337166
          -2.9885134697 -1.5284357071 -3.625459671 -3.3693249226 -2.1746864319 -3.8601913452
          -3.685041666 -3.7704277039 -3.4552974701 -3.8684840202 -1.9980680943 -3.8100042343
          -3.4821562767 -3.8353998661 -3.864505291 -1.792476058 -2.3835611343 -3.6888418198
          -3.6094388962 -3.4159879684 -2.6699001789 -2.8779294491 -3.5077786446 -3.8510253429
          -3.1299962997 -2.3264400959 -3.8445804119 -3.7883970737 -3.5555546284 -3.9093358517
          -3.6784446239 -3.6386201382 -2.0365715027 -3.7646205425 -3.3890359402 -3.8985857964
          -3.9535620213 -2.6980102062 -3.4731638432 -3.85242033 -3.5073981285 -3.2411875725
          -2.5948877335 -3.7712435722 -3.6430470943 -3.7071535587 -3.5675032139 -3.0179510117
          -3.9431080818 -2.4373729229 -3.6363861561 -3.9337193966 -3.8010854721 -3.6873657703
          -3.8533174992 -3.585278511 -2.9247360229 -2.7762506008 -3.5148835182 -3.8396244049
          -3.9986608028 -3.3696117401 -3.6633386612 -2.612609148 -3.5606532097 -3.7760584354
          -3.4246582985 -3.7548046112 -3.5555138588 -3.4025120735 -3.9733729362 -3.1565785408
          -3.9163281918 -3.482956171 -3.8031218052 -3.0103418827 -3.8190848827 -3.6947023869
          -3.6685736179 -2.7696926594 -3.6309940815 -4.0208892822 -3.4169023037 -3.4446809292
          -3.4886419773 -3.7267112732 -3.7895700932 -3.4196820259 -3.4155352116 -3.5135653019
          -3.9999978542 -3.2752888203 -3.4180824757 -3.4556603432 -3.0965218544 -3.8173911572
          -3.8109350204 -3.4823923111 -4.1020793915 -3.674040556 -3.6192200184 -3.771668911
          -3.573584795 -3.470846653 -3.4220018387 -3.4275794029 -3.3868253231 -3.6488940716
          -3.7920839787 -3.4570236206 -3.381821394 -3.5707752705 -3.8273143768 -3.2648832798
          -3.4711282253 -3.4519822598 -3.7068421841 -3.423866272 -3.7619991302 -3.6612193584
          -3.4145655632 -3.422965765 -3.5112042427 -3.7752230167 -3.4879422188 -3.739492178
          -3.6668732166 -3.4462521076 -3.424734354 -3.4350402355 -3.6366484165 -3.3955504894
          -3.4612727165 -3.5732798576 -3.4362142086 -3.7597332001 -3.7618687153 -3.4319190979
          -3.6318390369 -3.7350485325 -3.7344744205 -3.3898527622 -3.4284768105 -3.5898878574
          -3.4006261826 -3.5564661026 -3.437505722 -3.7486009598 -3.7349114418 -3.4147529602
          -3.7010529041 -3.4888246059 -3.6289167404 -3.3677177429 -3.4979565144 -3.4263420105
          -3.5352425575 -3.577960968 -3.4726142883 -3.638954401 -3.4406988621 -3.7501521111
          -3.6232471466 -3.4284951687 -3.3648490906 -3.6149065495 -3.4364676476 -3.7892196178
          -3.5946047306 -3.7619116306 -3.7157661915 -3.6911599636 -3.4189682007 -3.4294056892
          -3.4049360752 -3.4201426506 -3.5978004932 -3.4575841427 -3.4065701962 -3.5605072975
          -3.5022149086 -3.5005204678 -3.575761795 -3.3565814495 -3.6429591179 -3.6541745663
          -3.7614915371 -3.4800598621 -3.8021137714 -3.4604718685 -3.4387423992 -3.5713033676
          -3.7237427235 -3.6704897881 -3.5075747967 -3.7283835411 -3.3774592876 -3.4834189415
          -3.5270125866 -3.612878561 -3.5333640575 -3.6403648853 -3.5198395252 -3.5637476444
          -3.6320374012 -3.3114860058 -3.6914622784 -3.3420865536 -3.8766424656 -3.7692859173
          -3.5935325623 -3.5488300323 -3.8219804764 -3.5810205936 -3.5395543575 -3.6187503338
          -3.2783024311 -3.6437170506 -3.7679738998 -3.5603606701 -3.3752048016 -3.6157529354
          -3.6715869904 -3.9539780617 -3.6503710747 -3.8405690193 -3.6714384556 -3.1665234566
          -3.5735442638 -3.511225462 -3.1836652756 -3.7971258163 -3.8891341686 -3.6542546749
          -3.3859782219 -3.5412018299 -3.6152663231 -3.6884713173 -3.5608990192 -3.7016482353
          -3.2264649868 -3.1253988743 -3.6031630039 -3.7458717823 -3.9118077755 -3.5447025299
          -3.7497680187 -3.7437124252 -3.6648795605 -2.9943065643 -3.5043568611 -3.0096135139
          -4.0018200874 -3.7346689701 -3.1593706608 -3.6834096909 -3.3779945374 -3.5494091511
          -3.7471635342 -3.4451856613 -2.9658620358 -3.6119289398 -3.4781897068 -3.0243425369
          -3.9247684479 -3.1780033112 -3.6562759876 -3.4083893299 -3.5912265778 -3.6585600376
          -2.8466391563 -3.4297459126 -2.8339061737 -3.6264164448 -2.9671394825 -3.1517724991
          -3.5008087158 -3.2447042465 -3.6045210361 -3.3245987892 -3.5770983696 -3.5461964607
          -2.8127009869 -3.5518648624 -2.8106806278 -3.2983412743 -3.4211006165 -3.4853298664
          -2.9522471428 -3.2877430916 -2.7069518566 -2.6370315552 -3.3233959675 -3.431417942
          -3.0012233257 -3.4465723038 -3.3713932037 -2.7316324711 -3.1344370842 -3.4540276527
          -3.4090499878 -3.4321854115 -3.3789942265 -3.1869418621 -2.6739778519 -2.5945038795
          -3.3446030617 -3.3313429356 -3.1712772846 -3.1750047207 -2.6528520584 -3.1980895996
          -2.5760743618 -2.5082924366 -3.2418270111 -2.4998869896 -2.8539206982 -3.2729296684
          -3.3276424408 -3.237238884 -3.1997828484 -3.2083342075 -3.0012950897 -2.6157412529
          -3.1446299553 -2.4002242088 -3.0219888687 -3.1453781128 -3.0486414433 -3.0972530842
          -2.4404029846 -2.4800138474 -2.5447890759 -3.0497934818 -2.6185655594 -3.0579679012
          -3.1693868637 -3.1556105614 -3.0211954117 -2.7507822514 -3.0318856239 -2.9939928055
          -2.911598444 -2.7779889107 -2.6167752743 -2.9621720314 -2.901815176 -2.9687957764
          -2.3765575886 -2.5376822948 -2.9849772453 -3.0041174889 -3.087870121 -2.6182014942
          -2.7977566719 -2.8633065224 -2.7570631504 -2.8616068363 -2.8117632866 -2.9626398087
          -2.7657091618 -2.9322323799 -3.1532492638 -2.8771936893 -3.0823431015 -2.6284542084
          -2.8313980103 -3.0246884823 -2.6615707874 -2.6034886837 -2.7710838318 -2.8303794861
          -2.9043200016 -2.6995165348 -2.8672986031 -2.9960839748 -3.3246431351 -2.6723725796
          -3.4197471142 -3.4646401405 -2.9579174519 -2.9484512806 -2.4882605076 -3.8532454967
          -3.7373239994 -3.0493228436 -2.8073790073 -3.5222797394 -2.683555603 -2.3828859329
          -3.2605621815 -2.6510415077 -2.5156731606 -3.0733156204 -3.2771270275 -3.8883228302
          -2.5890104771 -2.4336218834 -3.0686056614 -3.4065093994 -4.3052825928 -3.0610361099
          -4.522916317 -2.5397446156 -4.476621151 -4.3450703621 -2.6027197838 -4.2513942719
          -2.942761898 -2.5127608776 -2.6203029156 -3.2870426178 -3.7567205429 -2.5102510452
          -2.9090518951 -4.43481493 -3.4854578972 -4.7331094742 -3.3147826195 -3.0041480064
          -3.2414581776 -4.9078369141 -4.9151806831 -3.2763996124 -4.7671089172 -4.7397727966
          -2.6126995087 -2.9194176197 -3.4348392487 -4.2964630127 -2.7473728657 -3.2214727402
          -2.9024083614 -4.0749678612 -4.7203822136 -3.9432418346 -3.5055794716 -4.7895040512
          -3.4890341759 -4.8111863136 -3.9005289078 -4.7502164841 -3.9347648621 -2.8715062141
          -4.5189056396 -4.6822066307 -3.1762287617 -3.4102835655 -4.2662644386 -3.0225925446
          -4.3346714973 -3.8919513226 -3.9026679993 -4.2504887581 -4.2423491478 -4.6544361115
          -4.6784777641 -4.1027555466 -3.5335843563 -4.5534815788 -4.5195789337 -4.6401000023
          -4.3667750359 -4.5292172432 -3.3231329918 -4.7186250687 -4.7224359512 -3.7725169659
          -4.3736271858 -3.8630490303 -4.052836895 -4.3724255562 -3.8322768211 -4.7539339066
          -4.4067869186 -4.1062412262 -5.0505647659 -4.483812809 -4.9233355522 -4.1178779602
          -4.400914669 -4.692797184 -4.3992123604 -4.4928545952 -3.9262411594 -4.7443475723
          -4.3445153236 -4.5321259499 -4.9614028931 -5.5627985001 -4.922604084 -4.7963700294
          -4.7494850159 -4.5494904518 -4.7304701805 -1.9859217405 -2.6994245052 -3.8146622181
          -7.5701289177 -4.4529957771 -4.7905521393 -4.4221782684 -4.4023180008 -4.4614286423
          -4.3302049637 -4.5102701187 -4.7723054886 -8.0933408737 -6.0783405304 -4.7400465012
          -6.8296537399 -2.8949341774 -4.7060899734 -4.7460894585 -1.8034836054 1.4966262579
          -2.0593101978 -4.6610703468 -5.6610922813 -4.8220348358 -13.148490906 -4.5553498268
          -4.7249426842 -5.573946476 -5.8028182983 -4.6379151344 1.3515248299 -4.7693538666
          -4.4899978638 -1.8501675129 -4.4999732971 -6.8425803185 -4.6375465393 -4.5074939728
          -4.3953199387 -6.1022148132 -4.7646594048 -4.3896608353 -4.4617295265 -4.4777626991
          -4.3907270432 -4.4045844078 -4.4411735535
        </DataArray>
        <DataArray type="Float32" Name="VELOCITY" NumberOfComponents="3" ComponentName0="X-VELOCITY" ComponentName1="Y-VELOCITY" ComponentName2="Z-VELOCITY" format="ascii" RangeMin="0" RangeMax="9.1871186952">
          0 0 0 0 0 0
          3.6625871658 0.016780080274 0 5.0403690338 0.14994448423 0
          3.5673599243 0.1496244967 0 5.6150274277 0.1903668046 0
          0 0 0 5.5317602158 0.040909703821 0
          4.0105714798 0.073659516871 0 5.3657846451 0.045871570706 0
          0 0 0 5.5160312653 0.04642246291 0
          5.401304245 -0.0068702981807 0 5.3361082077 -0.018044918776 0
          3.9877605438 0.01974931173 0 5.3862366676 0.018369887024 0
          0 0 0 5.2937383652 -0.019950177521 0
          5.1173372269 -0.0028438938316 0 5.1405277252 -0.10545114428 0
          5.180249691 -0.11760275066 0 3.9222919941 -0.012277084403 0
          5.1762366295 -0.094147846103 0 0 0 0
          5.2197637558 -0.076770611107 0 5.1723604202 -0.13237705827 0
          5.055331707 -0.19245889783 0 5.0460252762 -0.076965682209 0
          5.1792292595 -0.16873592138 0 3.9521405697 -0.015015066601 0
          5.2543530464 -0.12195602804 0 4.9456520081 -0.25794050097 0
          5.3227133751 -0.086854912341 0 0 0 0
          4.8900413513 -0.25495308638 0 5.1605362892 -0.26561945677 0
          5.2448754311 -0.22594480217 0 5.067281723 -0.19212475419 0
          5.3300204277 -0.17402243614 0 4.9207844734 -0.094916589558 0
          3.918900013 -0.011395606212 0 5.3844399452 -0.11836553365 0
          0 0 0 5.4107260704 -0.074123956263 0
          4.9921827316 -0.35028067231 0 4.7441177368 -0.31845620275 0
          5.1960949898 -0.33447042108 0 4.9425997734 -0.24021424353 0
          5.332005024 -0.29363128543 0 5.4097318649 -0.22955204546 0
          4.81442976 -0.12249688059 0 5.4412379265 -0.16170470417 0
          5.4432501793 -0.1030285731 0 3.8371798992 0.0030807596631 0
          5.4265146255 -0.32155287266 0 4.8111791611 -0.26603040099 0
          5.5191292763 -0.25918364525 0 0 0 0
          5.4472537041 -0.059487044811 0 4.6519470215 -0.36999240518 0
          5.335111618 -0.37600594759 0 5.5395154953 -0.18022698164 0
          5.0763087273 -0.41859138012 0 4.6043376923 -0.14441376925 0
          5.5229854584 -0.10984367132 0 3.5014033318 -0.023268820718 0
          5.4979658127 -0.060980960727 0 5.6450605392 -0.26402747631 0
          5.0052728653 -0.42687109113 0 5.5978055 -0.32029944658 0
          5.6089658737 -0.12388321012 0 5.655148983 -0.18277533352 0
          0 0 0 5.470788002 -0.021820355207 0
          4.6662111282 -0.27429103851 0 5.5359663963 -0.35986882448 0
          4.4778394699 -0.16072486341 0 4.5587124825 -0.41451373696 0
          5.5624585152 -0.058348998427 0 5.4050297737 -0.39110609889 0
          3.4780993462 -0.048628177494 0 5.5122537613 -0.0096763269976 0
          5.7216968536 -0.10728678107 0 5.8121414185 -0.23567266762 0
          5.7891054153 -0.16241119802 0 5.2009210587 -0.41196900606 0
          5.8137841225 -0.26685005426 0 0 0 0
          5.4800643921 0.012860823423 0 4.5438661575 -0.29828676581 0
          5.6520705223 -0.021271223202 0 5.7703142166 -0.30767694116 0
          4.3215579987 -0.18248084188 0 4.9589748383 -0.42117846012 0
          4.4037671089 -0.39033317566 0 5.6367111206 -0.35371628404 0
          3.3608152866 -0.053390283138 0 5.5155653954 0.040809437633 0
          5.5773859024 0.043690212071 0 5.7563295364 0.010326138698 0
          5.8619937897 -0.035517334938 0 6.0040884018 -0.14871625602 0
          5.9584755898 -0.08492333442 0 4.4490170479 -0.33149075508 0
          5.4749498367 -0.39482581615 0 6.0323076248 -0.18522255123 0
          0 0 0 5.4718551636 0.057914052159 0
          5.9916625023 -0.24363808334 0 4.1722221375 -0.19447185099 0
          5.0673465729 -0.44438233972 0 5.6724572182 0.10515937954 0
          5.9279785156 -0.29742917418 0 3.2530190945 -0.086836047471 0
          5.4886302948 0.096829868853 0 6.101140976 -0.019882606342 0
          6.1623177528 -0.082708694041 0 6.0024285316 0.051762893796 0
          5.8265724182 0.12735189497 0 4.4086923599 -0.38801175356 0
          5.7545547485 -0.36199250817 0 4.3266992569 -0.2859365046 0
          6.2027101517 -0.12770929933 0 5.5357952118 0.14655534923 0
          0 0 0 5.4333047867 0.093671679497 0
          4.0806074142 -0.18652643263 0 6.1943840981 -0.20424547791 0
          5.6793551445 0.20886026323 0 3.4018547535 -0.056942798197 0
          5.4025769234 -0.41637900472 0 5.4467844963 0.14282105863 0
          6.2031960487 0.03282032907 0 6.1546258926 -0.27563938498 0
          6.1074576378 0.10547225922 0 4.280790329 -0.38227167726 0
          6.2890439034 -0.020558061078 0 5.5489625931 0.22052723169 0
          5.91659832 0.20582689345 0 6.355764389 -0.084501154721 0
          0 0 0 5.4055376053 0.11870472133 0
          4.9209475517 -0.40468239784 0 4.1450376511 -0.21871908009 0
          5.4465193748 0.20609368384 0 5.7261276245 0.28364679217 0
          6.3820910454 -0.1841557771 0 6.1731624603 -0.33678030968 0
          6.2920937538 0.056706491858 0 5.5489940643 0.30188205838 0
          6.1807880402 0.13470833004 0 3.1870832443 -0.094511978328 0
          5.4009132385 0.16559058428 0 5.7387452126 -0.3728658855 0
          5.4334445 0.27570682764 0 6.392636776 0.025568019599 0
          5.7583832741 0.32252085209 0 4.3491616249 -0.40235304832 0
          6.4897732735 -0.064588032663 0 0 0 0
          5.3813467026 0.12132685632 0 5.9499754906 0.27157658339 0
          6.5093431473 -0.21902111173 0 5.3777189255 0.22316983342 0
          5.5019760132 -0.32579013705 0 3.9784493446 -0.045481506735 0
          6.1875367165 -0.33408272266 0 2.9496350288 -0.075926803052 0
          5.5030260086 0.38397976756 0 3.8792059422 -0.3091032505 0
          5.3370728493 0.16102567315 0 6.3119430542 0.14151775837 0
          6.4859881401 -0.28532519937 0 5.3238625526 0.27531063557 0
          5.9803290367 -0.31352713704 0 5.3513684273 0.34566661716 0
          4.3982553482 -0.29783290625 0 6.4892706871 0.10579703748 0
          6.0169148445 0.2686445415 0 0 0 0
          5.2718744278 0.12670405209 0 5.181139946 -0.25567492843 0
          5.5734529495 0.3976149559 0 6.6606917381 -0.0034188914578 0
          6.7282452583 -0.15820990503 0 3.9517953396 0.083818726242 0
          6.4401936531 -0.23789277673 0 5.2262911797 0.21030789614 0
          5.2771134377 0.3873642385 0 3.4917125702 -0.24382083118 0
          5.7852811813 -0.24800524116 0 5.2055740356 0.14851725101 0
          5.6778483391 0.37638840079 0 4.1504116058 -0.26301267743 0
          6.7258501053 -0.17095093429 0 5.1532769203 0.2932357192 0
          5.2721095085 0.43496307731 0 6.1120920181 0.26858502626 0
          6.2671699524 -0.17359757423 0 4.8914299011 -0.24393112957 0
          6.3528385162 0.23785364628 0 5.1219038963 0.35445719957 0
          6.5625715256 0.21540541947 0 0 0 0
          5.2486348152 0.082283049822 0 3.2618632317 0.11044225842 0
          5.7555270195 0.34786739945 0 5.5641770363 -0.18933530152 0
          5.3074784279 0.43735617399 0 3.3881270885 -0.19053766131 0
          6.6419458389 -0.10077563673 0 5.1235814095 0.16041763127 0
          6.8358340263 0.093761265278 0 6.9228639603 -0.060276523232 0
          3.7726519108 -0.19255889952 0 5.0437870026 0.38776084781 0
          6.1170125008 -0.099134393036 0 4.5224881172 -0.22397886217 0
          5.2624292374 0.077348664403 0 5.8152084351 0.34328582883 0
          5.343228817 0.42011991143 0 6.0845136642 0.32987707853 0
          5.0488262177 0.19031837583 0 5.0075149536 0.42636090517 0
          4.943066597 0.24939900637 0 6.9271769524 -0.036242514849 0
          5.3201875687 -0.15776059031 0 6.3074774742 0.33534190059 0
          6.5525317192 -0.01218394842 0 3.1805331707 -0.051826801151 0
          5.4324655533 0.020755063742 0 0 0 0
          4.8253850937 0.32428345084 0 6.9737277031 0.058509275317 0
          5.4234704971 0.40913593769 0 3.4651002884 -0.15255877376 0
          5.9389634132 -0.064844846725 0 5.3434257507 0.060037851334 0
          6.5247659683 0.30306965113 0 4.9668636322 0.43589007854 0
          4.1003370285 -0.21989949048 0 6.8437275887 0.039483282715 0
          7.0392570496 0.0083584850654 0 5.0063285828 -0.16726988554 0
          6.4303369522 0.023603299633 0 4.7084212303 0.34832087159 0
          6.7580547333 0.19163006544 0 3.1786954403 -0.03302956745 0
          5.6396327019 0.38090100884 0 5.1773452759 0.17301230133 0
          5.5196847916 0.031736031175 0 4.9804673195 0.43494999409 0
          5.8902611732 0.38965773582 0 5.7313270569 -0.080450676382 0
          4.6295928955 0.37310767174 0 5.0860276222 0.18332618475 0
          7.0044379234 0.029441919178 0 6.1901545525 0.36140814424 0
          3.1104934216 -0.13408872485 0 6.7640180588 0.097738705575 0
          6.9590563774 0.044533647597 0 0 0 0
          5.613509655 -0.10328135639 0 4.9886989594 0.2162052691 0
          5.4826278687 0.031181799248 0 4.542386055 0.39266377687 0
          6.2787508965 0.0016542938538 0 6.4230217934 0.27389037609 0
          5.3906917572 0.030888047069 0 5.0347304344 0.43197149038 0
          4.6478424072 -0.19136317074 0 3.595761776 -0.22092150152 0
          5.5183181763 -0.12732227147 0 6.9053702354 0.08730481565 0
          4.8380846977 0.2643353343 0 7.0254216194 -0.01560471952 0
          5.4509530067 0.39960438013 0 3.042473793 -0.052394613624 0
          6.6798620224 0.10618102551 0 5.2379670143 0.053652767092 0
          6.7121400833 0.085204951465 0 5.0452027321 -0.060470785946 0
          5.6908125877 0.39489451051 0 4.4511704445 0.40737870336 0
          5.1714286804 0.11101456732 0 6.0443201065 0.31816467643 0
          4.702044487 0.29142904282 0 6.0531263351 -0.06776471436 0
          6.9643912315 0.01163853053 0 6.8274435997 0.095273211598 0
          6.8733310699 -0.03848535195 0 4.0950908661 0.049368284643 0
          0 0 0 3.021276474 -0.15715315938 0
          5.0782446861 0.12798272073 0 6.2868175507 0.18073794246 0
          3.7100481987 -0.13314305246 0 4.5772271156 0.28994822502 0
          3.985326767 -0.027732264251 0 5.6233816147 -0.17011494935 0
          4.582657814 -0.22433716059 0 4.7317466736 0.41475781798 0
          6.8803825378 0.053524773568 0 4.0131044388 0.03753747046 0
          6.9221940041 -0.082354612648 0 4.3327822685 0.38469299674 0
          4.9566531181 0.14200605452 0 5.1527647972 0.38316851854 0
          6.6829791069 -0.0060138753615 0 2.942499876 -0.060021981597 0
          5.4705367088 0.36248496175 0 6.5708174706 0.0011525567388 0
          3.8982203007 0.02262865752 0 6.7885432243 0.029615838081 0
          3.473721981 -0.23409724236 0 4.4317383766 0.31817060709 0
          3.8147895336 0.033527266234 0 5.7978253365 0.24894973636 0
          6.3951077461 -0.10511448979 0 4.7811217308 0.15911979973 0
          6.8589997292 -0.033928155899 0 6.8338737488 0.032199088484 0
          6.7697253227 -0.10572902858 0 0 0 0
          0 0 0 0 0 0
          0 0 0 2.9259722233 -0.18780358136 0
          3.7324635983 0.033464420587 0 0 0 0
          6.1237664223 0.097801879048 0 4.6753268242 0.15785112977 0
          4.1295452118 0.35266181827 0 5.4085931778 -0.22690807283 0
          4.330016613 0.2631714344 0 4.3384404182 0.38698387146 0
          4.4224338531 -0.25128209591 0 0 0 0
          4.8653268814 0.34016415477 0 6.8141665459 0.0092068519443 0
          6.822245121 -0.063185468316 0 3.6258909702 0.035868328065 0
          6.8356137276 -0.10178464651 0 2.7688417435 -0.06743234396 0
          3.3966071606 -0.24228945374 0 5.184823513 0.30334952474 0
          6.4526357651 -0.042826082557 0 0 0 0
          6.1671042442 -0.23449483514 0 6.7564043999 -0.19174616039 0
          0 0 0 5.578576088 0.18218760192 0
          3.3653073311 0.03096406348 0 0 0 0
          6.6894011497 -0.085175216198 0 6.8060846329 -0.010265872814 0
          4.4080176353 0.18869794905 0 6.8425183296 -0.038684371859 0
          2.8442797661 -0.20389722288 0 4.04885149 0.27408272028 0
          0 0 0 5.9534387589 0.060683120042 0
          4.6129765511 0.27112367749 0 3.9473860264 0.37839016318 0
          3.3634381294 0.0616337955 0 4.2673654556 -0.26766857505 0
          4.4025416374 0.24396581948 0 2.6078293324 -0.082060873508 0
          6.8297657967 0.031165571883 0 0 0 0
          6.7944426537 -0.026875747368 0 6.8953256607 -0.1603961736 0
          4.8687410355 0.2574006319 0 6.0788378716 -0.31439527869 0
          3.4007000923 -0.24500076473 0 6.3129267693 -0.018492598087 0
          5.2455449104 -0.29574477673 0 6.6769137383 -0.33177030087 0
          5.3201813698 0.15204875171 0 0 0 0
          6.8165488243 0.090551510453 0 2.7450010777 0.055234435946 0
          0 0 0 6.6043457985 0.0041202888824 0
          2.7658543587 -0.20086215436 0 6.9375143051 -0.012909708545 0
          4.2313361168 0.15497133136 0 3.7213172913 0.32103952765 0
          5.7420244217 0.084461055696 0 6.915948391 -0.29699090123 0
          4.4164152145 -0.26573115587 0 4.2073020935 0.22979095578 0
          3.1429326534 0.041109260172 0 0 0 0
          5.9087085724 -0.34404206276 0 2.4696836472 -0.069395326078 0
          6.101785183 0.062967516482 0 6.9212594032 0.14725750685 0
          6.7699427605 0.1084574759 0 4.5219941139 0.22650867701 0
          7.0711679459 -0.12804326415 0 6.4595379829 -0.39966231585 0
          3.3847696781 -0.24165783823 0 3.2344694138 0.04878943786 0