<?xml version="1.0"?>
<VTKFile type="PolyData" version="0.1" byte_order="LittleEndian" compressor="vtkZLibDataCompressor">
  <PolyData>
    <Piece NumberOfPoints="1041" NumberOfVerts="0" NumberOfLines="0" NumberOfStrips="0" NumberOfPolys="1940">
      <PointData>
        <DataArray type="Float32" Name="PRESSURE" format="ascii" RangeMin="-2.4864053726" RangeMax="6.0211930275">
          0 0.19892711937 0 0.12539216876 0.25469273329 0
          0.21705432236 0.094811439514 0.30793768167 0.20087489486 0.29664358497 0
          0.14927098155 0.049322765321 0.35847273469 0.28682729602 0.39186877012 0
          0.37574437261 0.14376607537 0.25129750371 0.41296815872 0.049559682608 0.42143848538
          0 0.3903362155 0.22407393157 0.4292229414 0.13348887861 0.41484680772
          0.036335252225 0.37329187989 0 0.41658169031 0.45615899563 0.30155149102
          0.23695531487 0.4571634233 0.11448803544 0.4334435463 0.38340133429 0.0077567594126
          0.36849662662 0 0.47417411208 0.49224716425 0.41731238365 0.45202830434
          0.33396160603 0.22640661895 0.41465386748 0.11093192548 0.033012144268 0.34433218837
          0.41364321113 0.39800366759 0.31658619642 0.34769672155 0 0.45741730928
          0.48436909914 0.19841499627 0.50217425823 0.32076609135 0.13162204623 0.27152657509
          0.061099223793 0.37418851256 0.43506130576 0.45862692595 0.24968209863 0.28148832917
          0.23911957443 0 0.28581601381 0.47595885396 0.24204313755 0.34589079022
          0.16276200116 0.44556567073 0.15273468196 0.092111900449 0.33191549778 0.39623129368
          0.33795443177 0.33573141694 0.41330480576 0.1231918633 0 0.13993747532
          0.2347881496 0.38583603501 0.096272177994 0.18655270338 0.13742785156 0.30388352275
          0.030538417399 0.034378487617 0.17329062521 0.31781959534 0.34820824862 0.34389322996
          0.34264436364 -0.007962603122 0.14004340768 0.34191510081 0.0027345935814 0
          0.27820155025 -0.044790446758 0.0011935790535 0.2652477324 0.12455976009 -0.10001485795
          0.05543487519 0.3283034265 0.2980889082 0.36106529832 0.30998840928 -0.11956373602
          -0.015751456842 -0.13005748391 0.23818279803 0.15625843406 -0.12983725965 0
          -0.13803957403 0.12155867368 0.31225207448 -0.19161351025 -0.20355388522 0.0041498700157
          0.30364686251 -0.0064707933925 0.37905874848 -0.20848748088 0.20413897932 0.27333417535
          0.36779403687 0.13672490418 -0.16088095307 0 -0.29904478788 -0.22922465205
          0.11594171077 0.40009063482 0.025728153065 -0.18078793585 0.17065545917 0.33948326111
          0.32661664486 -0.22541674972 0.015900004655 -0.27159073949 0.2225407213 0.098368279636
          0.45175790787 -0.29893237352 -0.026182519272 -0.19900721312 0 0.37696924806
          -0.12121234089 0.13840261102 -0.29899516702 -0.16955135763 -0.25972014666 -0.27727150917
          0.50721299648 -0.23061446846 0.014278804883 0.14531631768 -0.21205030382 0.25941029191
          -0.26972272992 0.42609190941 -0.2220363766 -0.03799976781 0.24082097411 -0.14400969446
          0 -0.23166322708 0.4570632875 -0.098033830523 -0.16007915139 -0.10451381654
          -0.21658311784 0.16970840096 0.48011532426 -0.13293814659 -0.21026453376 0.040709462017
          0.38690266013 -0.14791727066 -0.1559895277 0.34453201294 0.51581549644 0.053514160216
          -0.1632335037 -0.13239696622 -0.076240032911 0.45454207063 -0.13797102869 -0.068349272013
          0 -0.015290187672 0.19172696769 -0.10791566968 0.45499330759 -0.053239490837
          -0.1203289777 0.14232896268 -0.15512692928 -0.1136662364 -0.049581058323 0.50335049629
          -0.061213638633 -0.024099873379 0.038217633963 0.040832526982 0.33168455958 -0.13836874068
          0.27720484138 0.48770916462 0.39132487774 -0.060928139836 -0.0013147350401 -0.22040897608
          -0.039109129459 0.074203163385 0 0.10020978004 0.46131744981 -0.13119511306
          0.098736122251 0.058496613055 0.057365208864 0.16688661277 -0.23909893632 0.3928912282
          0.083933785558 0.014141645283 -0.05019710958 0.11980976164 0.064227215946 0.45397350192
          -0.18509946764 0.14946645498 -0.14712555707 0.36281421781 0.087571926415 0.23752346635
          -0.30865266919 0.15679128468 0.42144748569 0.41307941079 0.029106082395 -0.3079854846
          0.154010728 0.10196367651 -0.073480501771 0.17752121389 0 0.42856621742
          0.30071443319 0.31073978543 0.18994697928 -0.23931677639 0.20624916255 -0.061356708407
          0.2067386806 0.20440366864 0.21521878242 0.10745806992 0.41046997905 0.036439154297
          -0.29130998254 0.18249635398 -0.11695612967 0.37514954805 0.18418115377 0.12519855797
          -0.35733008385 0.13419523835 0.40057387948 -0.3029846251 0.32665979862 0.27326256037
          0.11474891752 0.17470911145 0.011284101754 0 0.19932888448 0.22382888198
          0.38961523771 -0.18103699386 0.24435901642 0.22258068621 0.30208298564 0.34028124809
          0.29442825913 -0.26267370582 0.16601321101 0.34326732159 0.11263408512 -0.067650288343
          0.35416853428 -0.33980762959 0.30147325993 0.20053340495 -0.34457662702 -0.025496279821
          0.3699055016 0.28868055344 0.2619279623 0.063920237124 0.37054851651 -0.22791872919
          0.31693002582 0.25097206235 0.17562408745 0.23070946336 0.10589074343 0
          0.21738702059 0.1686886847 0.24005611241 0.23034276068 0.33745977283 0.32398366928
          -0.062537759542 0.15661044419 -0.22155316174 0.37318879366 -0.086468093097 -0.33954921365
          0.32186943293 0.36737427115 -0.34013822675 0.21564865112 0.29556825757 0.29599651694
          0.19484731555 0.1972643137 0.26348727942 -0.26322194934 0.095235340297 0.38307899237
          0.32885432243 0.29893150926 0.36923229694 -0.10181414336 0.18532060087 0.20276194811
          0.20748904347 0.25241649151 -0.031499970704 0.24846704304 0.20648416877 -0.26188495755
          0.32717505097 0.070850901306 -0.26427865028 -0.33150282502 0.075796797872 0.27020847797
          -0.207702443 0.16657391191 0.24754032493 0.27000045776 0.29420691729 0.26330372691
          -0.1275755614 0.2663487792 0.20833747089 0.21554610133 0.24052686989 0.24191972613
          0.05115288496 0.14715340734 0.29513731599 -0.024558011442 0.16279901564 0.31278654933
          0.16310636699 0.25929656625 -0.25683251023 -0.26157313585 0.20989769697 0.1981010139
          0.17896336317 -0.15000241995 -0.16569109261 0.079850897193 0.15040528774 0.12904395163
          0.27763050795 0.26990279555 0.3587358892 0.014384286478 0.20090779662 0.12732386589
          0.14600363374 -0.24121777713 -0.085364826024 0.17219112813 0.083865359426 0.063010714948
          0.12489306182 0.29765248299 0.13068801165 -0.18554323912 0.20147627592 -0.11672835052
          0.38320457935 0.28463739157 -0.26767927408 -0.18126189709 0.084216378629 -0.0048174378462
          0.0038555706851 0.060136701912 0.10389566422 0.21723882854 0.10761358589 0.3511030674
          0.16150805354 0.10663874447 -0.17032408714 -0.22066427767 -0.085745207965 -0.30375868082
          0.28777739406 0.1053782925 -0.077362895012 -0.03904800117 -0.0043100239709 0.25394070148
          0.023917755112 0.08668410778 0.097245343029 0.36085581779 0.13432642817 -0.0035924850963
          -0.24459190667 -0.19879171252 0.073144972324 0.10831765085 0.36475929618 0.061522088945
          0.29472970963 0.0089827803895 -0.28719872236 0.027875928208 0.13535633683 0.26615840197
          0.069111958146 0.32672476768 -0.13068684936 0.07198459655 -0.065502621233 -0.010950964876
          0.13537363708 -0.18647345901 -0.22891014814 0.2214936763 -0.29355800152 -0.14164543152
          0.33437791467 0.034068204463 -0.03607339412 0.2947461009 -0.092702709138 0.0056777703576
          0.17075069249 0.20720440149 -0.2753739953 -0.1405300349 0.28072807193 -0.12967684865
          0.033490370959 -0.045844711363 0.028963034973 -0.080820821226 0.17460279167 0.25769835711
          -0.23216819763 -0.20907713473 -0.26628288627 0.0099156610668 -0.22885414958 0.22472782433
          -0.005467032548 -0.16469426453 0.24435336888 0.13311563432 0.25254666805 -0.033591158688
          -0.019033677876 0.22997030616 -0.16863311827 -0.34487527609 0.23773263395 -0.12558889389
          0.011411607265 0.011240568943 -0.21777690947 -0.025472642854 0.22503955662 -0.12453241646
          -0.15713497996 -0.013644157909 0.0057419729419 0.24426649511 0.21460574865 -0.085825197399
          -0.32524627447 -0.24317906797 0.19940504432 0.11143475026 -0.13181200624 -0.005500247702
          0.037599626929 0.19124782085 -0.010469748639 -0.0073297349736 -0.042332869023 -0.0035004969686
          -0.33398920298 -0.18978758156 0.23994971812 -0.084419757128 -0.09822448343 -0.0034895122517
          -0.037754006684 0.1694522649 -0.033667631447 0.032984402031 -0.050213303417 0.026632811874
          0.15754647553 -0.23624002934 -0.2272271663 0.071890838444 -0.072205200791 0.11204010248
          -0.053294125944 0.18456031382 0.076606921852 -0.023710608482 -0.20398116112 -0.095821402967
          0.01045762375 -0.11011593044 0.12450604886 0.13359540701 0.00087818014435 0.041201967746
          -0.073477365077 -0.020980864763 0.070551790297 0.15791067481 0.085263237357 -0.097473107278
          0.0040929918177 -0.15353985131 -0.055976234376 0.0014711748809 -0.089172042906 0.059618126601
          -0.064979746938 0.018244383857 -0.085054531693 0.091485127807 0.0064569427632 -0.049514044076
          -0.021019212902 0.13603718579 0.049186054617 -0.13874468207 -0.0022065923549 -0.043758992106
          0.072683483362 -0.005200445652 -0.056402806193 0.055731672794 0.029537938535 0.014021781273
          -0.18403105438 0.036287471652 -0.016470791772 -0.048266425729 0.078220434487 -0.16057682037
          -0.091396361589 -0.067010037601 -0.24752642214 -0.053114969283 -0.030608454719 -0.00043817146798
          0.064710311592 -0.012167630717 -0.04001641646 -0.062931150198 -0.020182484761 0.069365680218
          -0.013091356494 0.015924690291 -0.073866225779 0.0099461078644 -0.29145419598 0.051116578281
          0.0257895533 -0.12935335934 -0.29567721486 -0.090779140592 -0.2450324446 -0.18872217834
          -0.055297438055 -0.13141936064 -0.15424010158 -0.035842441022 0.083294309676 0.028056928888
          -0.0023368480615 -0.17291891575 -0.035814516246 -0.14925587177 -0.020719984546 -0.19269113243
          0.0082597089931 0.071755036712 -0.25307399035 0.0025005578063 -0.43231940269 -0.15039119124
          -0.42479720712 -0.43491744995 -0.41870966554 0.030458025634 -0.25270450115 -0.37521833181
          -0.13373114169 -0.3986980617 -0.25645130873 -0.024853976443 -0.030267244205 0.053961459547
          0.019451320171 -0.39888009429 -0.014137852937 -0.087039232254 -0.44724008441 -0.26731100678
          0.035616818815 -0.58949959278 -0.42881262302 -0.63332104683 -0.58297711611 -0.011446568184
          -0.63368344307 -0.27001366019 -0.047695267946 -0.65286338329 -0.41031575203 -0.04299075529
          -0.67261147499 -0.055845193565 -0.018708961084 -0.01292213425 -0.25751999021 -0.4064911902
          -0.72275209427 -0.038519170135 -0.73574733734 -0.42999458313 -0.22405286133 -0.67271065712
          -0.82083368301 -0.61036992073 -0.059023778886 -0.78005290031 -0.93648278713 -0.99933129549
          -0.083150729537 -0.44614741206 -0.095555171371 -0.57578933239 -0.19832083583 -1.0210920572
          -0.073957383633 -1.0716718435 -0.45337951183 -0.12080458552 -0.94623148441 -0.5977948904
          -0.20353397727 -0.93802177906 -0.4421094954 -1.0767832994 -0.63661307096 -0.83220911026
          -1.3419246674 -0.96906656027 -0.22041222453 -1.09763062 -0.15352845192 -0.11001319438
          -0.69937038422 -1.3726439476 -0.19778966904 -0.42169040442 -0.78669977188 -1.2687637806
          -1.091848135 -0.75255972147 -0.27917689085 -0.82307296991 -1.3156951666 -1.0031996965
          -0.43149715662 -0.24948550761 -0.71605193615 -0.18998068571 -0.95193266869 -1.0533424616
          -0.90715557337 -1.5865178108 -1.1921141148 -0.44623118639 -0.34605976939 -1.0266171694
          -1.5508537292 -1.4376059771 -1.2949968576 -0.70639812946 -0.90208935738 -1.0036066771
          -1.367839694 -1.086119771 -0.99777269363 -0.45543754101 -0.31794425845 -1.0054415464
          -0.71802121401 -1.1045957804 -1.1934636831 -0.98495870829 -0.8983695507 -1.0970618725
          -0.48953297734 -0.69417029619 -1.2958500385 -1.3510189056 -1.2803547382 -0.99449270964
          -1.0691097975 -1.1910835505 -0.90384209156 -1.1797333956 -0.95525753498 -1.0881617069
          -0.47314107418 -1.1593697071 -0.67025929689 -0.75105220079 -1.3859199286 -1.4073946476
          -0.74898886681 -0.76388806105 -0.78547847271 -1.0520807505 -0.82719099522 -0.77989375591
          -0.95895922184 -0.8089582324 -0.8855484128 -0.70183694363 -1.3057985306 -0.65574520826
          -0.55685681105 -1.5324403048 -0.56202805042 -0.53933382034 -0.79552280903 -1.1854387522
          -0.45795586705 -0.43697395921 -0.38425531983 -0.34449160099 -0.58731687069 -1.3285450935
          -0.32114291191 -1.5245937109 -0.80059605837 -0.14522838593 -0.26281115413 -0.8279531002
          -1.1293771267 -1.3450846672 -0.96996700764 -0.33932310343 -0.1888961345 -0.12455390394
          -1.3630775213 -0.9049090147 -0.24123108387 -0.20034278929 0.1927215308 -0.39088457823
          0.00086416507838 0.14764681458 -0.91944122314 0.078474268317 0.083628095686 -1.089343667
          -0.98490184546 -1.1911050081 -0.51002699137 -1.2943166494 -0.0036723602097 0.19905480742
          -1.1824028492 0.30399262905 0.010420249775 -0.48784503341 -0.018867686391 -0.78277361393
          0.35985779762 0.34055128694 0.38106375933 -0.047232322395 0.33491209149 -1.0895913839
          -1.0543408394 -1.0636965036 -0.299387604 0.23245236278 -0.055222202092 -0.95426607132
          0.094092234969 0.50194203854 0.50324308872 0.033605702221 -0.56041842699 0.091870419681
          0.34561154246 0.43461996317 0.042339712381 -0.86997902393 -0.95866513252 0.33110669255
          -0.11109934747 0.58534955978 0.55415356159 -0.7527127862 0.19373048842 0.0023547322489
          0.19832468033 0.18198671937 0.7051858902 0.11634199321 0.519728899 0.255027771
          0.3109125793 0.035911381245 -0.31523558497 0.072773985565 0.2631778717 -0.58909350634
          -0.72763985395 0.30311524868 0.28564983606 0.055453997105 0.80172288418 -0.37417382002
          0.70646768808 0.40976816416 0.098929941654 0.044754322618 0.3710629642 0.6398152709
          0.8849105835 0.096798829734 0.23255972564 0.35938504338 -0.40232872963 0.38719391823
          0.37014073133 -0.18863293529 0.046226494014 0.11228404194 0.29756608605 0.99948012829
          0.28221559525 0.35440984368 0.07794380933 -0.020168866962 0.87168669701 0.14866679907
          0.65070837736 0.32551020384 0.55273729563 1.1073819399 -0.022409703583 0.43278285861
          0.27494886518 0.46362215281 0.20710481703 -0.046947591007 0.30535036325 0.3588694334
          0.2801193893 1.2656645775 -0.061651065946 1.1980518103 0.082878723741 0.34681546688
          0.028693305328 1.0265375376 0.89818531275 0.25641202927 0.6369831562 1.4843387604
          0.32233884931 0.51387149096 0.36556965113 0.14955180883 0.48688107729 -0.12830968201
          0.58199983835 -0.071270033717 1.7848089933 0.36546313763 -0.062817461789 1.8806291819
          -0.30645233393 1.6027454138 0.48316606879 0.908883214 0.28519108891 0.58870798349
          0.07774733752 2.2615013123 0.70998972654 0.68106639385 0.48461177945 -0.32696777582
          -0.13097032905 0.62586003542 -0.27157118917 -0.26112493873 -0.24656949937 2.8025352955
          0.64004874229 -0.079369619489 -0.48949956894 2.8579494953 3.1901621819 1.680111289
          0.2427136302 3.2698726654 0.7768201232 -0.38534551859 0.75858020782 0.86548674107
          -0.80737823248 -0.40802010894 -0.46211451292 0.89378070831 -0.63846772909 0.67608845234
          -0.52441078424 -0.2835085094 -0.44920688868 4.564447403 1.0055346489 -0.14515846968
          5.0261440277 -0.42789229751 3.6743454933 2.3335914612 0.98349636793 0.63772642612
          1.0874787569 0.13537788391 -0.48815509677 -1.2917152643 1.2162634134 -1.9498981237
          1.2895674706 -0.55123829842 0.81077176332 -1.0403525829 -0.4799887836 -0.59984058142
          -0.39001452923 3.7951016426 1.6508489847 4.5698781013 5.9992074966 4.6472277641
          -0.76031208038 1.2462769747 1.1965392828 -0.38613253832 -1.9894164801 1.480727911
          -2.44444561 -0.4600405395 -0.32759955525 1.9646736383 -2.0145173073 -1.0966758728
          -1.0479035378 1.4538456202 -0.54469197989 -1.9549018145 -0.42003858089 2.9063036442
          1.7600498199 -1.3437842131 -0.53273642063 2.3183143139 -1.0861700773 0.63952958584
          3.1241276264 -2.0345053673 2.3096125126 -2.4864053726 2.7924859524 3.3119335175
          3.6316132545 -2.0122246742 1.3284481764 4.9828219414 4.583553791 4.4564571381
          6.0211930275 4.5855093002 3.748922348
        </DataArray>
        <DataArray type="Float32" Name="VELOCITY" NumberOfComponents="3" ComponentName0="X-VELOCITY" ComponentName1="Y-VELOCITY" ComponentName2="Z-VELOCITY" format="ascii" RangeMin="0" RangeMax="8.1197918374">
          0 0 0 0 0 0
          1.7004294395 0.025408079848 0 2.3675823212 0.065588071942 0
          1.6457682848 0.049228113145 0 2.800606966 0.081160828471 0
          0 0 0 3.1568832397 0.025125492364 0
          1.8467978239 0.0159759745 0 2.6984062195 0.029335422441 0
          0 0 0 3.6898534298 -0.00093953491887 0
          3.6397101879 0.044809393585 0 4.236656189 0.039704289287 0
          1.8197081089 0.034782528877 0 2.8515090942 0.02340756543 0
          0 0 0 4.6997127533 0.020091682673 0
          2.57523489 0.014937166125 0 4.7320189476 0.052951909602 0
          4.266225338 0.055901858956 0 1.8127793074 -0.0056286789477 0
          5.0851421356 0.044305030257 0 0 0 0
          5.4343414307 0.014664537273 0 3.6605286598 0.038508791476 0
          5.0565371513 0.072592630982 0 2.5902023315 0.0042752241716 0
          5.5364775658 0.08333298564 0 1.8458200693 -0.015788923949 0
          5.775097847 0.064453415573 0 4.9405589104 0.064789913595 0
          6.0706734657 0.025588756427 0 0 0 0
          4.4152202606 0.035826582462 0 5.582716465 0.098465584219 0
          5.8501095772 0.12171525508 0 3.5807738304 0.0040672416799 0
          6.1340317726 0.12967301905 0 2.6066186428 -0.021077111363 0
          1.8241680861 -0.017754007131 0 6.4191327095 0.11217138171 0
          0 0 0 6.6885976791 0.05613623932 0
          5.331553936 0.046300593764 0 4.5897083282 0.0023755822331 0
          5.8624706268 0.098046518862 0 3.6609888077 -0.020017202944 0
          6.3045730591 0.15435475111 0 6.5829362869 0.19025751948 0
          2.6553678513 -0.033704366535 0 6.7897920609 0.19574043155 0
          6.9505085945 0.14480806887 0 1.785977602 -0.0087200943381 0
          6.5764183998 0.14163666964 0 3.5243191719 -0.043019104749 0
          6.8757724762 0.20387621224 0 0 0 0
          7.2445783615 0.063969895244 0 4.6778416634 -0.043320894241 0
          6.2949228287 0.065773554146 0 7.0725703239 0.23567117751 0
          5.6634559631 -0.0062314732932 0 2.5639793873 -0.048194762319 0
          7.2523159981 0.19636501372 0 1.5979405642 -0.016185661778 0
          7.4204044342 0.11610010266 0 7.0387692451 0.16382037103 0
          5.4942288399 -0.068298377097 0 6.8546485901 0.076925754547 0
          7.2532496452 0.19981297851 0 7.1640791893 0.20285844803 0
          0 0 0 7.5790266991 0.046485926956 0
          3.5483322144 -0.063418954611 0 6.6195416451 -0.019667115062 0
          2.5236239433 -0.051487654448 0 4.7301545143 -0.091151580215 0
          7.4257602692 0.12109997869 0 6.2575955391 -0.073424510658 0
          1.597643137 -0.033289019018 0 7.5910773277 0.02965676412 0
          7.1842169762 0.14120222628 0 7.0939011574 0.058566968888 0
          7.1213150024 0.12581367791 0 5.7818541527 -0.12885995209 0
          7.0269556046 -0.044331755489 0 0 0 0
          7.6775922775 -0.0055840858258 0 3.3923721313 -0.077543087304 0
          7.3470416069 0.051260020584 0 6.834526062 -0.13689920306 0
          2.5300462246 -0.0613370426 0 5.3515744209 -0.1442925036 0
          4.424284935 -0.10844456404 0 6.4843864441 -0.17617072165 0
          1.5408596992 -0.023199735209 0 7.6112627983 -0.048363428563 0
          7.5334324837 -0.07849843055 0 7.208275795 0.0010474751471 0
          7.0942668915 0.045601300895 0 7.0895690918 -0.042403876781 0
          7.0465292931 0.035837579519 0 3.4993505478 -0.082322724164 0
          6.1124453545 -0.18615168333 0 7.0987968445 -0.15697485209 0
          0 0 0 7.5677108765 -0.050260167569 0
          6.9609231949 -0.22160904109 0 2.5082757473 -0.0607743375 0
          5.4766144753 -0.14927181602 0 7.3310337067 -0.15414899588 0
          6.7154240608 -0.22880941629 0 1.4930889606 -0.026905527338 0
          7.3775510788 -0.13032408059 0 7.0290431976 -0.0013645951403 0
          7.1320157051 -0.10229139775 0 7.0290322304 0.0060680354945 0
          7.1551833153 -0.097631208599 0 4.6763682365 -0.10497510433 0
          6.3581700325 -0.19045007229 0 3.4396567345 -0.074277848005 0
          7.1968612671 -0.20009563863 0 7.2593355179 -0.20671574771 0
          0 0 0 7.2397074699 -0.067372694612 0
          2.5376799107 -0.045380223542 0 7.1024346352 -0.23920762539 0
          7.1315121651 -0.20697887242 0 1.6276681423 -0.014615426771 0
          5.8050994873 -0.1084381938 0 7.0116405487 -0.1546548754 0
          7.1209917068 0.040602367371 0 6.9055523872 -0.19389496744 0
          7.0769095421 0.071736894548 0 4.4227766991 -0.069468423724 0
          7.2720918655 -0.054122950882 0 7.0568289757 -0.25711676478 0
          7.0863204002 -0.033235516399 0 7.3815355301 -0.1462675035 0
          0 0 0 6.7331404686 -0.053221225739 0
          5.2928881645 -0.054569084197 0 3.0135145187 -0.026605833322 0
          6.7725615501 -0.2140070349 0 7.0473837852 -0.13895457983 0
          7.3159675598 -0.16523075104 0 6.8262825012 -0.11942496896 0
          7.2710270882 0.10144393146 0 6.9129810333 -0.22336496413 0
          7.1454911232 0.16670769453 0 1.5318163633 -0.013670900837 0
          6.4642658234 -0.12597587705 0 6.1846108437 -0.008081833832 0
          6.5606131554 -0.21509613097 0 7.4609203339 0.030058695003 0
          6.9806609154 -0.030547080562 0 4.7391171455 -0.014653288759 0
          7.5724215508 -0.064643353224 0 0 0 0
          6.1009392738 -0.020673852414 0 7.0543117523 0.11893831193 0
          7.3997297287 -0.07001785934 0 6.2076654434 -0.16486312449 0
          5.9026403427 0.04420985654 0 2.6593310833 0.018426863477 0
          6.8140735626 0.044651377946 0 1.4357981682 -0.0032229910139 0
          6.6770429611 -0.10909096152 0 3.6449222565 0.001303770463 0
          5.7826480865 -0.081209398806 0 7.2732129097 0.23891766369 0
          7.2042126656 0.035689886659 0 5.9758882523 -0.14708971977 0
          6.5370111465 0.096186205745 0 6.1854791641 -0.14414124191 0
          4.6624965668 0.051837712526 0 7.5656085014 0.10124378651 0
          6.9955887794 0.2619933486 0 0 0 0
          5.4250836372 -0.012074044906 0 5.5707378387 0.095974691212 0
          6.6687808037 0.054008524865 0 7.7131028175 -0.0004742363235 0
          7.5801639557 0.021597407758 0 2.204975605 0.052761998028 0
          7.0600514412 0.12624026835 0 5.3607888222 -0.095043592155 0
          6.0005149841 -0.075581945479 0 3.095720768 0.006826100871 0
          6.3056349754 0.15164017677 0 5.123705864 -0.044044118375 0
          6.6653151512 0.19425396621 0 4.2621307373 0.057907681912 0
          7.38615942 0.11689697206 0 5.2911634445 -0.089431017637 0
          6.0297446251 0.011393801309 0 6.9618310928 0.29731583595 0
          6.8071775436 0.18520742655 0 5.2644386292 0.10688593984 0
          7.2398838997 0.2164016515 0 5.3723416328 -0.054688621312 0
          7.5110340118 0.069018557668 0 0 0 0
          4.6641955376 -0.0090422406793 0 1.6559742689 0.045657157898 0
          6.5840010643 0.25527352095 0 6.0469622612 0.17457780242 0
          6.0767087936 0.10318499058 0 2.5742557049 -0.0015090192901 0
          7.1917972565 0.17964711785 0 4.5461411476 -0.06095354259 0
          7.7082586288 -0.016022080556 0 7.6127934456 0.042588621378 0
          3.7384018898 0.055633138865 0 5.2612867355 -0.0014102392597 0
          6.5970287323 0.2154892683 0 4.8262143135 0.097992189229 0
          4.2182459831 -0.042054764926 0 6.5029830933 0.23968745768 0
          6.0356345177 0.1659938395 0 6.7478952408 0.21186906099 0
          4.2959189415 -0.047774136066 0 5.3286833763 0.047668624669 0
          4.5016560555 -0.031115254387 0 7.4555621147 0.11824250221 0
          5.7531199455 0.162201792 0 7.0193252563 0.097561895847 0
          7.0131750107 0.21811591089 0 2.2367553711 0.02865922451 0
          3.7199118137 0.0032171839848 0 0 0 0
          4.5434646606 -0.00052706338465 0 7.6135354042 -0.049428511411 0
          6.003528595 0.19658669829 0 3.2038938999 0.035972286016 0
          6.3760652542 0.21054834127 0 3.7617366314 -0.041042972356 0
          7.2590456009 -0.035778719932 0 5.2836937904 0.10096529871 0
          4.3321213722 0.082795217633 0 7.2832779884 0.17382676899 0
          7.5371727943 0.0047133034095 0 5.3731336594 0.13347493112 0
          6.8147001266 0.21557684243 0 4.4206185341 0.030953699723 0
          7.4025082588 -0.11630836874 0 1.6247895956 0.0010374869453 0
          6.1418600082 0.1797414422 0 3.6358265877 -0.016914416105 0
          3.1904711723 -0.011151245795 0 5.2960338593 0.14258986712 0
          6.4143314362 0.099113091826 0 6.137814045 0.17899413407 0
          4.4529070854 0.058483421803 0 3.6591541767 0.0031036250293 0
          7.3932328224 0.064633816481 0 6.7787642479 -0.032201223075 0
          2.3772537708 0.017394572496 0 7.1266260147 0.19284015894 0
          7.4577307701 -0.12641108036 0 0 0 0
          2.8855695724 -0.050478737801 0 3.6219696999 0.017779534683 0
          2.964476347 -0.016566766426 0 4.4946684837 0.093263179064 0
          6.6010046005 0.17801766098 0 7.0289750099 -0.14745256305 0
          2.7253262997 -0.013518812135 0 5.3565516472 0.16186875105 0
          4.9508018494 0.10318559408 0 3.7526917458 0.050752215087 0
          5.8933415413 0.13295191526 0 7.2496495247 0.10775499791 0
          3.6644940376 0.036234054714 0 7.3918514252 -0.070668235421 0
          5.8420085907 0.11233541369 0 1.5991594791 -0.01122496184 0
          7.1987690926 -0.20292706788 0 2.7236166 0.013680629432 0
          6.9893503189 0.16148744524 0 2.3405504227 -0.044459305704 0
          6.1804561615 0.0010518373456 0 4.40817976 0.12101056427 0
          2.7244021893 0.021065792069 0 6.5954685211 -0.12156619132 0
          3.6098129749 0.061514191329 0 6.3392615318 0.12545129657 0
          7.2868776321 -0.0028060805053 0 7.1269431114 0.10903654993 0
          7.2704482079 -0.18713915348 0 1.8547263145 -0.010632157326 0
          0 0 0 2.4796817303 0.0051052351482 0
          2.7290358543 0.029174227268 0 6.8336520195 -0.20831522346 0
          1.7043534517 -0.044036339968 0 3.5937068462 0.080362200737 0
          1.8299508095 0.0019663074054 0 5.9403610229 0.083262607455 0
          4.8703799248 0.066631145775 0 4.9375224113 0.11082646251 0
          7.198431015 0.035869587213 0 1.8404132128 0.0025316972751 0
          7.2406935692 -0.12026104331 0 4.27079916 0.12903685868 0
          2.7219624519 0.039285641164 0 5.4550089836 0.029411258176 0
          6.8647551537 0.064733155072 0 1.6095064878 -0.0099476259202 0
          5.9335641861 -0.064247846603 0 7.0198488235 -0.23932036757 0
          1.7981104851 0.011108041741 0 7.021674633 0.049288339913 0
          3.6855192184 0.036319799721 0 3.553750515 0.096613556147 0
          1.7743455172 0.016048483551 0 6.3047032356 -0.1721521616 0
          6.5470952988 0.013750308193 0 2.6441404819 0.054138422012 0
          7.176076889 -0.042525671422 0 7.1190462112 0.019410975277 0
          7.1117300987 -0.20217689872 0 0 0 0
          0 0 0 0 0 0
          0 0 0 2.5116381645 -0.0074932719581 0
          1.7473441362 0.016250442713 0 0 0 0
          6.6117119789 -0.23474244773 0 2.6616575718 0.056924343109 0
          3.9086833 0.088392905891 0 5.6837487221 0.019538626075 0
          3.4148898125 0.086119264364 0 4.4670972824 0.054634794593 0
          4.6808691025 0.036937188357 0 0 0 0
          5.1044430733 -0.025356383994 0 7.1489729881 -0.0046906466596 0
          7.0352249146 -0.050417304039 0 1.7065471411 0.017119912431 0
          7.1192188263 -0.11350818723 0 1.5682302713 -0.012933867984 0
          3.6458420753 0.020114019513 0 5.61531353 -0.11386346072 0
          6.8350968361 -0.23343890905 0 0 0 0
          6.2713246346 -0.078333377838 0 6.8628849983 -0.13715092838 0
          0 0 0 6.0422763824 -0.19397412241 0
          1.5755187273 0.021070143208 0 0 0 0
          6.9664812088 -0.16929517686 0 7.114780426 -0.011391030625 0
          2.4838309288 0.062333367765 0 7.1534366608 -0.039406340569 0
          2.5283918381 -0.0094454837963 0 3.5515086651 0.041274737567 0
          0 0 0 6.3818063736 -0.22196395695 0
          4.8256206512 -0.067393943667 0 4.016872406 0.017284849659 0
          1.6055964231 0.022016072646 0 4.5160217285 0.0079189660028 0
          2.8041234016 0.056871693581 0 1.5482136011 -0.015283389948 0
          7.1668510437 0.023596772924 0 0 0 0
          7.0044083595 -0.052247080952 0 7.1330518723 -0.13877697289 0
          5.2691087723 -0.12577009201 0 6.1105303764 -0.16682986915 0
          3.7264192104 0.016252962872 0 6.6315755844 -0.18786737323 0
          5.4313077927 -0.068965882063 0 6.7088737488 -0.26516279578 0
          5.743751049 -0.17678833008 0 0 0 0
          7.0729012489 0.073906168342 0 1.2657626867 0.016170978546 0
          0 0 0 6.811650753 -0.086627736688 0
          2.5661113262 -0.0037466527428 0 7.2655348778 -0.0069616609253 0
          2.8922688961 0.013967349194 0 3.5870375633 -0.00076402327977 0