<?xml version="1.0"?>
<VTKFile type="PolyData" version="0.1" byte_order="LittleEndian" compressor="vtkZLibDataCompressor">
  <PolyData>
    <Piece NumberOfPoints="1041" NumberOfVerts="0" NumberOfLines="0" NumberOfStrips="0" NumberOfPolys="1940">
      <PointData>
        <DataArray type="Float32" Name="PRESSURE" format="ascii" RangeMin="-6.1584811211" RangeMax="7.1974663734">
          0 0.11362625659 0 0.041131645441 0.10554026812 0
          0.040207654238 0.017840560526 0.075447432697 0.019694818184 0.029058210552 0
          -0.046809226274 -0.03553679958 0.036644697189 -0.017662912607 0.048479888588 0
          -0.0087297558784 -0.076143421233 -0.089188918471 0.033285021782 -0.042340543121 0.040384724736
          0 -0.059860095382 -0.12450176477 0.0043498463929 -0.12600792944 0.026735680178
          -0.06606695056 -0.15161275864 0 0.046961218119 -0.085216552019 -0.20392663777
          -0.20652370155 -0.021997990087 -0.17653080821 0.040020979941 0.040744442493 -0.10253977031
          0.059459406883 0 -0.12460865825 -0.032001405954 -0.20079125464 0.03265221417
          -0.26545247436 -0.26596644521 0.092741109431 -0.22276893258 -0.11205612123 0.087849885225
          -0.25973114371 0.098925068974 -0.28848996758 0.13353413343 0 0.052122782916
          -0.16683021188 -0.27108097076 -0.035346761346 0.12789486349 -0.14804936945 0.12037248164
          -0.081289567053 -0.25429919362 0.063224770129 -0.19049967825 -0.24592427909 -0.2713445127
          0.13016054034 0 0.15229062736 -0.053808450699 0.15501818061 0.14931850135
          -0.16016098857 0.042819388211 0.1142096445 -0.10527814925 -0.20950619876 -0.14724248648
          -0.2064614445 0.17040763795 -0.075151868165 0.12034577876 0 0.16369013488
          -0.21202515066 0.027293626219 0.13806037605 0.21275010705 0.21021820605 0.1420328021
          0.083491005003 -0.08074388653 -0.13435989618 -0.20553079247 -0.14176738262 -0.047469768673
          -0.11088123918 0.14761702716 0.19021932781 0.011337900534 0.071998506784 0
          0.096535272896 0.075541257858 0.24885562062 -0.23450997472 0.16257940233 -0.010714680888
          -0.1302459836 -0.02530589141 0.043912403286 -0.074297845364 -0.23191976547 0.16499716043
          0.22125504911 0.060409221798 0.084824502468 -0.19616235793 -0.042899444699 0
          -0.012833342887 0.16935364902 -0.26885518432 -0.11036255956 0.14969781041 -0.11559835076
          0.011920358986 0.14418742061 -0.035987235606 0.043805353343 0.065346181393 -0.31019276381
          -0.13190312684 0.087991036475 -0.10594423115 0 0.018721729517 -0.12367294729
          -0.2261864692 -0.2926543653 0.1223577559 0.10840324312 0.09280628711 -0.33068555593
          0.016814412549 -0.24577695131 -0.10291071236 0.014226101339 -0.33641886711 0.091408789158
          -0.19348305464 -0.19490402937 0.056040368974 -0.26777485013 0 -0.019007043913
          0.076894558966 -0.20415207744 -0.18285353482 -0.26836499572 -0.07499615103 -0.41688725352
          -0.23863919079 -0.33464941382 -0.081404298544 0.081998631358 -0.053420320153 -0.25464522839
          -0.19376447797 -0.29875293374 -0.36777433753 0.064305312932 0.12028968334 -0.35758048296
          0 -0.36588379741 -0.065921261907 0.073838189244 -0.047698579729 -0.3675609827
          -0.18946002424 -0.18329562247 -0.23140133917 -0.41746506095 -0.36915889382 -0.061165865511
          0.082337975502 -0.46537518501 -0.17055553198 -0.23385158181 -0.10868595541 0.18336866796
          -0.35411021113 -0.51095384359 0.11068157107 -0.20102861524 0.042507495731 -0.40585035086
          0 -0.38018843532 0.18370506167 -0.51870793104 0.021797219291 -0.45671898127
          -0.34034585953 -0.10197565705 0.021629398689 -0.10739165545 -0.51726454496 -0.14224039018
          -0.49702331424 -0.55969512463 -0.044006284326 0.26212909818 0.15059451759 0.1758454144
          -0.1347001195 -0.032418638468 -0.16135980189 -0.2580268085 -0.60436493158 0.084874950349
          -0.47889435291 -0.40634360909 0 -0.34943524003 -0.11228050292 -0.15198646486
          0.24235734344 -0.48375505209 -0.56966567039 -0.094241455197 -0.092691510916 0.082447364926
          -0.54919606447 -0.39829826355 -0.24151675403 -0.58918392658 -0.56006300449 -0.036387965083
          -0.16944348812 -0.3632196486 0.25047689676 -0.10215814412 -0.011011324823 0.18626770377
          0.11993397772 -0.58454394341 0.034817703068 -0.083391532302 -0.35724183917 -0.056499641389
          -0.40971088409 -0.47806599736 -0.2866101265 -0.33769321442 0 -0.046618703753
          -0.049558345228 0.1257789731 -0.56315642595 -0.22539332509 -0.0091104982421 0.24079921842
          -0.54081594944 -0.46435445547 -0.54275715351 -0.42755246162 0.013065142557 -0.36389952898
          0.13477498293 -0.35361680388 -0.3696051538 -0.045627590269 -0.49404272437 0.0314306207
          -0.054796651006 0.18589729071 -0.026239821687 -0.23558992147 0.07774644345 -0.51175624132
          -0.39282402396 -0.43703609705 -0.43685230613 0 -0.31446263194 -0.32764282823
          0.0042614997365 -0.4118655324 0.074816510081 0.13132590055 0.031058656052 -0.42362251878
          -0.38591706753 0.11915693432 -0.38210099936 -0.017840547487 -0.43384322524 0.18099629879
          0.049025390297 -0.031309939921 -0.39305195212 -0.28973346949 -0.23353037238 -0.51624190807
          -0.028347559273 -0.40238523483 -0.29435631633 0.15640604496 -0.017028057948 -0.42867034674
          -0.36449992657 0.085677854717 -0.37223559618 -0.32338559628 -0.52211940289 0
          -0.23313455284 0.074831306934 0.040060020983 -0.22468526661 0.0073338449001 0.020180130377
          -0.56248855591 0.12502846122 0.067753240466 -0.24593318999 0.11620557308 -0.055892873555
          -0.21776469052 -0.0055096065626 -0.22946791351 -0.28813546896 -0.25848218799 0.054439265281
          -0.43385455012 -0.19470724463 -0.18211911619 -0.42335271835 -0.58958423138 -0.0080108959228
          -0.19829326868 -0.20142887533 0.0050113475882 -0.58006620407 0.069878682494 -0.14256815612
          -0.52520126104 -0.31902834773 0.089164935052 -0.18358674645 -0.12322314084 -0.067313358188
          0.035637188703 -0.64096963406 -0.39519351721 -0.26360598207 0.093322783709 -0.076388217509
          -0.029888680205 -0.10782070458 -0.19129922986 0.08423345536 -0.35715040565 -0.13777288795
          -0.56103950739 -0.0046386267059 -0.056741390377 -0.5831220746 0.020049292594 -0.036499533802
          -0.63721299171 0.079002127051 -0.23262670636 0.062351249158 -0.069718755782 -0.46745184064
          -0.039143335074 -0.10674190521 -0.20324757695 -0.38631206751 -0.61035478115 -0.017182305455
          0.036351427436 -0.51764667034 -0.047266732901 0.12850688398 0.13440975547 -0.037313394248
          -0.52724337578 -0.11859054863 -0.26228311658 -0.60909295082 -0.024888556451 0.10619852692
          0.044855963439 -0.1694920361 0.013075833209 -0.61332339048 0.14036218822 0.072471395135
          -0.0053613050841 -0.13744717836 0.030392356217 -0.3287370801 -0.040410295129 -0.45324373245
          -0.36432418227 -0.54965877533 -0.3150652349 -0.077309295535 0.049772914499 -0.5554536581
          0.18798960745 0.12653854489 0.020436720923 -0.039988286793 0.088094718754 -0.17867948115
          -0.55545824766 0.031974293292 0.20608079433 -0.18720023334 -0.39341306686 -0.47775274515
          -0.49695017934 0.049738574773 0.11154057086 0.22914353013 -0.47282546759 -0.02586488612
          0.1200593859 0.073879696429 0.04405618459 -0.36477270722 -0.48553135991 0.039147276431
          -0.34862586856 0.18694972992 0.051063559949 0.059263989329 -0.18336229026 0.14344707131
          -0.013219349086 0.03843755275 0.1580825448 -0.39277333021 -0.39858493209 -0.40790587664
          0.087479121983 -0.31664866209 -0.38779789209 0.053653243929 0.15216773748 0.0704260692
          0.10061167926 0.1917924732 0.090722888708 -0.37791708112 0.088859349489 0.056115187705
          -0.19608682394 0.024807993323 -0.42454588413 -0.015216642059 0.14159607887 0.075998820364
          0.12268707901 -0.33982235193 0.018899828196 0.070666261017 -0.24968020618 0.012388395146
          0.010055499151 0.069935508072 0.036584086716 0.22641195357 -0.32556557655 -0.27494204044
          -0.053592070937 -0.013260296546 0.12648391724 -0.023834981024 -0.14818757772 -0.31482681632
          -0.026822678745 -0.0073761828244 -0.00883620698 0.11413695663 -0.1183450371 -0.086613163352
          0.26385641098 -0.31317165494 -0.17989735305 0.21363076568 -0.18247611821 -0.20029465854
          -0.038071081042 -0.057932499796 0.0019146250561 -0.11917768419 -0.24255728722 -0.35395592451
          -0.10042494535 -0.10491579026 -0.1089194864 -0.26650798321 -0.096363082528 -0.40649417043
          0.018782855943 0.2605381906 -0.0087561756372 0.092102207243 -0.1320335567 -0.32799977064
          0.20273973048 -0.17179885507 -0.12350023538 -0.49737092853 -0.38855990767 -0.16358007491
          0.079237133265 -0.17578667402 -0.18618378043 -0.57444852591 0.25602442026 -0.26783621311
          -0.199200809 -0.0042161038145 -0.32562571764 -0.38369852304 -0.41277509928 0.21570113301
          -0.091309972107 -0.20143808424 0.15116986632 -0.54039627314 -0.38174068928 0.098962776363
          -0.22642193735 -0.13425992429 -0.64153254032 -0.25023320317 -0.12225779146 -0.4542247057
          -0.31982856989 0.1254504621 0.055369649082 -0.012777062133 -0.54695779085 -0.40514275432
          -0.29725655913 -0.38631129265 -0.51983433962 -0.046857673675 -0.58504420519 -0.45578420162
          -0.49956527352 0.020321866497 -0.54824703932 0.16496869922 -0.29144954681 0.093801774085
          -0.31655836105 -0.54435902834 -0.29763069749 0.052817229182 -0.39260753989 0.033327333629
          -0.63741368055 0.040353920311 -0.457041502 -0.34503269196 -0.52184337378 -0.52469867468
          -0.49284824729 -0.57169699669 -0.1484632045 -0.46894153953 0.075806289911 -0.63150686026
          -0.34535193443 0.054683201015 -0.44191029668 -0.52670842409 0.060336925089 -0.31250807643
          -0.34564891458 -0.47316616774 -0.38731768727 -0.0053505906835 -0.37270888686 -0.40329778194
          -0.67423886061 -0.37738156319 -0.51295143366 -0.45005205274 -0.34337374568 -0.5972379446
          -0.24614582956 0.029491605237 -0.3395665586 0.004192603752 -0.33347374201 0.061366260052
          -0.61237120628 -0.39895164967 -0.30712088943 -0.43173322082 -0.30671161413 -0.29081600904
          -0.46391701698 -0.37304341793 -0.28284558654 -0.18001803756 -0.61902791262 -0.42721530795
          -0.077402457595 -0.26284310222 -0.47899889946 -0.40357324481 -0.051312174648 -0.24654102325
          0.0075414646417 -0.56566363573 -0.31830668449 -0.34669581056 -0.35626035929 -0.3945094347
          -0.32005447149 -0.32087317109 -0.2915790379 -0.5027179122 -0.34150969982 -0.23907639086
          -0.36494973302 -0.2282410115 -0.38292133808 -0.22116872668 -0.14298029244 -0.52286636829
          -0.4570132494 -0.20045763254 -0.071606121957 -0.36334967613 -0.27291661501 -0.36857575178
          -0.50039243698 -0.33239328861 -0.31893995404 -0.32623100281 -0.35991448164 -0.37244519591
          -0.272795856 -0.35022112727 -0.36738035083 -0.23478731513 -0.37190937996 -0.22536897659
          -0.22019843757 -0.30018728971 -0.15664072335 -0.4366030395 -0.30999284983 -0.38885548711
          -0.40145719051 -0.40157032013 -0.27075669169 -0.38103434443 -0.26675856113 -0.32885843515
          -0.40798005462 -0.38298416138 -0.4001250267 -0.45175233483 -0.28375539184 -0.32368659973
          -0.37133669853 -0.33766198158 -0.33076146245 -0.419316113 -0.27619692683 -0.39405608177
          -0.26904025674 -0.35223191977 -0.2685598731 -0.39402118325 -0.56437641382 -0.42515349388
          -0.30905482173 -0.43005374074 -0.23773251474 -0.40568956733 -0.39673364162 -0.48323336244
          -0.43042030931 -0.64616143703 -0.34079539776 -0.61656206846 -0.37033468485 -0.33237966895
          -0.35423651338 -0.51124686003 -0.38450339437 -0.23711206019 -0.49503681064 -0.50925666094
          -0.7978297472 -0.29952394962 -0.36238113046 -0.47102496028 -0.72237062454 -0.52978801727
          -0.28617662191 -0.40181064606 -0.25424081087 -0.37162670493 -0.45217257738 -0.89206057787
          -0.57433766127 -0.7061778903 -0.91281193495 -0.33095055819 -0.40049552917 -0.42257985473
          -0.85190218687 -0.73614227772 -0.68524807692 -0.2753200531 -0.58014214039 -0.33903717995
          -1.0358792543 -1.0819560289 -0.53580760956 -0.36518496275 -0.40528014302 -0.68688285351
          -0.31869661808 -0.37513127923 -0.54347848892 -1.1762155294 -0.669903934 -1.2451235056
          -0.43867918849 -0.37414294481 -1.3027456999 -0.49264246225 -1.1659129858 -0.69041901827
          -0.35820284486 -0.99519824982 -1.380209446 -0.69942176342 -0.90109169483 -1.479998827
          -0.43882602453 -1.4466792345 -0.42887735367 -0.82854402065 -0.71947312355 -0.51978802681
          -1.4427921772 -0.82282370329 -1.5667433739 -0.45235827565 -1.7593022585 -1.6236064434
          -0.84411513805 -1.3967261314 -0.46822676063 -1.1563971043 -0.56201583147 -0.44816020131
          -1.6066917181 -0.76686424017 -1.8405184746 -1.0181182623 -0.47792634368 -0.92865008116
          -1.9449059963 -0.95353883505 -1.6077570915 -1.7708845139 -1.0048571825 -1.0425953865
          -1.9064537287 -0.84053301811 -1.1004565954 -2.0865910053 -1.6153336763 -0.52263700962
          -0.68046540022 -0.76882189512 -0.6105619669 -1.2205650806 -1.6690034866 -1.8971486092
          -1.1794939041 -1.2651605606 -1.0118044615 -1.0254946947 -2.0916926861 -1.1449888945
          -1.600325346 -1.9595036507 -1.4850206375 -1.6434515715 -1.7626283169 -0.82783281803
          -0.68392711878 -0.95397239923 -1.393635273 -1.1506832838 -1.4721813202 -1.4935319424
          -1.4286048412 -1.6134057045 -1.197843194 -1.6681858301 -0.95455777645 -1.7875453234
          -1.5455875397 -1.3797060251 -1.4957845211 -1.0224707127 -1.3769676685 -1.2685730457
          -0.92794513702 -1.1143268347 -2.0223519802 -1.3315088749 -1.3196265697 -1.5694110394
          -1.0896500349 -1.0963532925 -1.0744788647 -1.6264425516 -1.9288777113 -0.79542028904
          -0.89144074917 -0.79710906744 -0.65800410509 -1.4045329094 -1.2023077011 -0.85054051876
          -2.154004097 -1.0092846155 -0.87469768524 -1.6000034809 -0.68975520134 -0.82385104895
          -1.7868191004 -0.51858574152 -0.69582051039 -1.1119459867 -0.43298321962 -1.9580484629
          -0.25902345777 -0.20778293908 -1.9010077715 -2.0293226242 -0.20048689842 -1.6003296375
          -1.462751627 -1.2946757078 -0.23313239217 -0.24158242345 -0.63595163822 -1.7097078562
          -0.43958288431 -0.071934573352 0.002634398872 -0.46641898155 -1.3657341003 -0.15821267664
          -0.39683124423 0.21745736897 -0.62667709589 0.084749005735 -1.6253209114 -1.438341856
          0.17810484767 -1.6651806831 -1.6932146549 0.49979063869 0.017992729321 -0.39450979233
          -0.61990773678 -1.6044150591 0.18164296448 0.39922127128 -0.18820126355 -0.077274397016
          -0.092101879418 -0.61393409967 -0.083064317703 -0.28958177567 -1.5837026834 0.023473218083
          -0.058990504593 -0.85678333044 -1.4421479702 0.84979170561 0.24101422727 -1.2584383488
          -0.076255522668 -0.33342859149 0.55838954449 -0.27932962775 0.25408485532 -0.19036507607
          0.89908748865 -0.35124444962 -0.4788518846 0.25018829107 -0.44451060891 -0.38195168972
          -1.3459832668 -0.53895837069 0.12516674399 0.01194814872 -1.1263650656 0.83248060942
          -0.80215638876 0.63166475296 -0.43072453141 0.017427278683 0.525436759 -0.53046512604
          1.1236544847 -0.71318054199 -0.012248004787 -0.90267854929 0.18196561933 -1.0166934729
          -0.48311474919 -0.58625328541 -0.6976903677 -0.43532654643 -0.03565890342 1.4441277981
          0.28909912705 -0.13990920782 0.7897669673 0.85667014122 1.2092339993 -0.64503145218
          -0.2114662379 0.4295591414 2.1458010674 -0.77946096659 -0.77516078949 -1.1834748983
          -0.092827118933 -0.77649641037 -0.65131646395 -1.3446304798 -0.20118628442 -0.39780414104
          -0.410176754 2.3258123398 1.6473785639 -0.20496204495 1.0584225655 -0.49008136988
          1.7625962496 0.90794986486 2.3771293163 -0.80789810419 -0.54873210192 0.2609308362
          -0.9403643012 2.9932773113 -1.0149601698 -0.62669187784 -0.40223002434 -1.524273634
          -0.29425755143 -0.53425705433 2.5818026066 -3.480727911 -0.4216606915 -1.1852433681
          -0.31762245297 1.7548357248 -0.88733929396 3.3316776752 4.3560624123 1.071873188
          2.6462626457 -0.87599921227 -0.71510672569 -0.94410026073 -1.0646166801 -0.53764092922
          -0.39333674312 -0.33509728312 -0.64109647274 2.5170457363 -5.4231748581 -0.39815536141
          -6.1563501358 4.2628560066 -1.4034997225 -0.56609398127 1.157304883 7.1974663734
          3.3189997673 -1.1995379925 5.1709933281 -1.1994035244 3.0251390934 -0.77036005259
          -0.4537076354 -3.4563257694 5.0593910217 -0.62225717306 7.1524033546 -1.5834320784
          -0.80400007963 1.1510850191 -0.6993765831 -6.1584811211 -0.66297250986 -0.80464082956
          -1.0733770132 -5.4579606056 -0.65978741646 -0.97301971912 -0.61215370893 -0.84637576342
          -1.1360715628 -0.99296420813 -0.91966998577
        </DataArray>
        <DataArray type="Float32" Name="VELOCITY" NumberOfComponents="3" ComponentName0="X-VELOCITY" ComponentName1="Y-VELOCITY" ComponentName2="Z-VELOCITY" format="ascii" RangeMin="0" RangeMax="8.1174006129">
          0 0 0 0 0 0
          1.7209630013 0.023668188602 0 2.3861238956 0.060196306556 0
          1.6591198444 0.048562921584 0 2.817949295 0.075015597045 0
          0 0 0 3.1566178799 -0.00027582090115 0
          1.8512232304 0.0098881637678 0 2.6820375919 0.0093279546127 0
          0 0 0 3.7178883553 -0.022500995547 0
          3.6352620125 0.0071993563324 0 4.2797040939 -0.0046992716379 0
          1.8108267784 0.031521223485 0 2.8113050461 -0.0017117224634 0
          0 0 0 4.7893652916 -0.012865934521 0
          2.522970438 -0.00073002959834 0 4.7501916885 -0.025734031573 0
          4.2451467514 -0.00054276472656 0 1.7954906225 -0.0037624686956 0
          5.1519751549 -0.043380223215 0 0 0 0
          5.5696411133 -0.062324494123 0 3.6066725254 0.012140865438 0
          5.0164055824 -0.025304794312 0 2.5285611153 0.010747829452 0
          5.5185899734 -0.068887270987 0 1.830473423 -0.0083116106689 0
          5.830286026 -0.10844741017 0 4.8562984467 -0.0030627769884 0
          6.1974520683 -0.12793886662 0 0 0 0
          4.3355407715 0.026146715507 0 5.4414415359 -0.021648712456 0
          5.7183775902 -0.051838818938 0 3.5081236362 0.023005614057 0
          6.0671329498 -0.11254797131 0 2.5527894497 0.0011134035885 0
          1.8212528229 -0.0061542382464 0 6.4305830002 -0.16456820071 0
          0 0 0 6.7468361855 -0.18222415447 0
          5.172264576 0.041031591594 0 4.4995346069 0.040315791965 0
          5.659263134 0.03093781881 0 3.5987658501 0.027043230832 0
          6.0844078064 0.0040174443275 0 6.4282727242 -0.072388991714 0
          2.6201400757 -0.0013564171968 0 6.7216506004 -0.14391598105 0
          6.9343762398 -0.19584019482 0 1.8018813133 0.0032001892105 0
          6.3559317589 0.076878786087 0 3.4954612255 0.019936259836 0
          6.7352986336 0.012811766006 0 0 0 0
          7.154604435 -0.18919934332 0 4.6074957848 0.048086181283 0
          6.0884542465 0.10646250099 0 7.0387043953 -0.069003388286 0
          5.5037603378 0.092707715929 0 2.5611157417 -0.014833007008 0
          7.2591452599 -0.15044499934 0 1.6366919279 -0.005677124951 0
          7.354306221 -0.16356305778 0 6.9951939583 0.1118742153 0
          5.395588398 0.090459272265 0 6.72012043 0.17048329115 0
          7.4474534988 -0.062986962497 0 7.2935199738 0.03677244857 0
          0 0 0 7.3420081139 -0.099384918809 0
          3.5662825108 0.0070692803711 0 6.4938869476 0.17949870229 0
          2.5496988297 -0.013150232844 0 4.7151794434 0.038025800139 0
          7.5471320152 -0.095261566341 0 6.1750440598 0.15638872981 0
          1.66025424 -0.024519648403 0 7.4829850197 -0.040811512619 0
          7.5932307243 0.0084747085348 0 7.204808712 0.19670170546 0
          7.4314947128 0.11109015346 0 5.7572274208 0.10455229133 0
          7.0541157722 0.23548471928 0 0 0 0
          7.4061336517 0.0039801001549 0 3.4464423656 -0.0079404544085 0
          7.6916007996 -0.015601729043 0 6.8569087982 0.22169293463 0
          2.5927214622 -0.028854094446 0 5.400472641 0.033609241247 0
          4.4841599464 -0.0033626288641 0 6.5405597687 0.16399130225 0
          1.6239840984 -0.020815338939 0 7.4827690125 0.070900268853 0
          7.5983910561 0.056665863842 0 7.710706234 -0.0072658658028 0
          7.6684207916 0.018628418446 0 7.3159303665 0.19837960601 0
          7.4975576401 0.10804516077 0 3.5804727077 -0.03471871838 0
          6.2036328316 0.087011545897 0 7.1855721474 0.22840811312 0
          0 0 0 7.3472552299 0.11531183124 0
          7.0485696793 0.19468921423 0 2.5977604389 -0.044738940895 0
          5.5965633392 -0.014216301031 0 7.5995063782 0.036407619715 0
          6.8641543388 0.10930241644 0 1.5868195295 -0.031660169363 0
          7.2949185371 0.16413491964 0 7.3749308586 0.050030555576 0
          7.224301815 0.14524079859 0 7.5486497879 -0.060231070966 0
          7.5888233185 -0.069356836379 0 4.784283638 -0.062903232872 0
          6.5158805847 0.015405481681 0 3.5372934341 -0.064086720347 0
          7.1497797966 0.15578262508 0 7.2873854637 0.15218240023 0
          0 0 0 7.122879982 0.17693683505 0
          2.6390483379 -0.046371489763 0 7.1057939529 0.099735662341 0
          7.3024811745 -0.023529026657 0 1.7217007875 -0.028931219131 0
          5.9740419388 -0.097332417965 0 6.9737710953 0.21021188796 0
          7.2314991951 -0.025196565315 0 7.025906086 -0.00048670571414 0
          7.3769836426 -0.1450522989 0 4.5063419342 -0.10045703501 0
          7.0934100151 0.049610394984 0 7.0590643883 0.079537607729 0
          7.3546667099 -0.19809700549 0 7.0556616783 0.047428391874 0
          0 0 0 6.7589473724 0.19347369671 0
          5.4050607681 -0.12858271599 0 3.1023156643 -0.072136133909 0
          6.7182412148 0.16793817282 0 7.1134343147 -0.13327544928 0
          7.0765242577 -0.039494160563 0 6.9515428543 -0.14069968462 0
          7.0935916901 -0.050077121705 0 6.8065958023 -0.024270799011 0
          7.2357139587 -0.17381122708 0 1.6033486128 -0.038534484804 0
          6.4722008705 0.19671618938 0 6.3035159111 -0.17628234625 0
          6.4204273224 0.079038187861 0 7.0019264221 0.01049106475 0
          6.9789557457 -0.21701557934 0 4.7766318321 -0.14387640357 0
          7.0365309715 -0.011387566105 0 0 0 0
          6.2255744934 0.15521089733 0 7.130695343 -0.27075198293 0
          7.1106829643 -0.1468205601 0 6.1332674026 0.1429899931 0
          5.9470152855 -0.18259325624 0 2.7119135857 -0.034267935902 0
          6.8442940712 -0.24606348574 0 1.4751410484 -0.01718339324 0
          6.4571862221 -0.13819046319 0 3.6694457531 -0.10228802264 0
          5.8397331238 0.13658562303 0 7.1132183075 -0.089704245329 0
          7.079621315 -0.26505377889 0 5.8224072456 0.07524111867 0
          6.5436048508 -0.22741357982 0 5.9383854866 -0.0054103699513 0
          4.6252942085 -0.11869259924 0 7.0251231194 0.064811140299 0
          7.0202088356 -0.22800399363 0 0 0 0
          5.5743627548 0.084355667233 0 5.535964489 -0.14996607602 0
          6.5103192329 -0.22179624438 0 7.1191320419 0.002966750646 0
          7.2403492928 -0.16534300148 0 2.2342114449 0.027337819338 0
          6.991104126 -0.26314240694 0 5.3361244202 0.078614458442 0
          5.7345046997 -0.073635220528 0 3.0807890892 -0.068434901536 0
          6.2509980202 -0.18877479434 0 5.2013263702 0.079618565738 0
          6.6118841171 -0.2138389349 0 4.1934432983 -0.079589702189 0
          7.2640285492 -0.22761388123 0 5.1693425179 0.0185636729 0
          5.7795100212 -0.12580128014 0 7.0092792511 -0.077902562916 0
          6.7391228676 -0.21120855212 0 5.1555557251 -0.1014674753 0
          7.0749459267 0.072897784412 0 5.1771187782 -0.031961768866 0
          7.1112289429 0.18174104393 0 0 0 0
          4.7557249069 0.036567542702 0 1.6599127054 0.04032972455 0
          6.6815562248 -0.14059790969 0 5.9240436554 -0.11030949652 0
          5.9337096214 -0.13950765133 0 2.5402534008 -0.046548418701 0
          7.1567296982 -0.19341573119 0 4.5523538589 0.039480477571 0
          7.2963356972 0.11309035867 0 7.4383330345 -0.089324370027 0
          3.6477429867 -0.035965964198 0 5.076499939 -0.053714372218 0
          6.4942455292 -0.11925034225 0 4.6771154404 -0.046919107437 0
          4.250767231 0.023794788867 0 6.6917529106 -0.049073822796 0
          6.0324020386 -0.11053277552 0 6.9181499481 0.080353796482 0
          4.2407259941 0.013359800912 0 5.1846637726 -0.066256098449 0
          4.3933091164 -0.008570660837 0 7.488196373 -0.12056478113 0
          5.5808496475 -0.035286538303 0 7.0309739113 0.21923942864 0
          6.9878892899 -0.10752714425 0 2.1822974682 0.0013050303096 0
          3.7436084747 0.029041828588 0 0 0 0
          4.4209718704 -0.025163847953 0 7.4931578636 0.094397075474 0
          6.1351413727 -0.05516076088 0 3.1087958813 -0.018684759736 0
          6.2273669243 -0.017630469054 0 3.7402367592 0.017500681803 0
          7.1273846626 0.298781991 0 5.2247052193 -0.059153601527 0
          4.1719865799 -0.0018480655272 0 7.3965239525 -0.076751127839 0
          7.6317481995 0.0056067262776 0 5.1759138107 0.019531847909 0
          6.7587819099 -0.0076046348549 0 4.3241934776 -0.028574161232 0
          7.3012785912 0.26061743498 0 1.5960547924 -0.0050672981888 0
          6.372531414 0.037893209606 0 3.5629122257 -0.0057039312087 0
          3.1828043461 0.026532826945 0 5.3225102425 -0.038965050131 0
          6.6098642349 0.17239026725 0 5.9588394165 0.062237910926 0
          4.3896808624 -0.024383658543 0 3.5776884556 -0.0079522849992 0
          7.677251339 -0.021395081654 0 6.8382701874 0.27858656645 0
          2.2941527367 -0.0043560359627 0 7.235063076 0.015139820985 0
          7.5296998024 0.13565145433 0 0 0 0
          2.9030640125 -0.044750384986 0 3.5499215126 -0.0081100286916 0
          2.9047291279 0.0062267752364 0 4.4804377556 -0.024537192658 0
          6.5087785721 0.091630376875 0 6.9859981537 0.30231556296 0
          2.6925237179 0.012446952052 0 5.4688506126 0.01553258393 0
          4.7570695877 0.064375385642 0 3.6104576588 0.019869992509 0
          5.7083420753 0.10288339853 0 7.5814938545 0.02288688533 0
          3.6125724316 -0.0082014324144 0 7.7059760094 0.036910533905 0
          6.0298919678 0.11791171879 0 1.5539255142 -0.010174730793 0
          7.1989989281 0.21469962597 0 2.66634655 0.013739443384 0
          7.0548019409 0.11697232723 0 2.35729599 -0.039980243891 0
          6.2985363007 0.22296281159 0 4.4525074959 0.00060179422144 0
          2.6742703915 0.010150322691 0 6.5977921486 0.27205297351 0
          3.5893754959 -0.0059753535315 0 6.2240538597 0.16217625141 0
          7.7462530136 0.0087671065703 0 7.4120497704 0.093773558736 0
          7.4445061684 0.083506390452 0 1.8775347471 -0.012927480042 0
          0 0 0 2.3790531158 0.0070625883527 0
          2.6918313503 0.01056158077 0 6.771982193 0.22982853651 0
          1.7202426195 -0.041407458484 0 3.6117110252 0.0031055675354 0
          1.8319152594 0.0099674481899 0 5.8042640686 0.17052038014 0
          4.7149796486 0.099132306874 0 5.0576281548 0.10159461945 0
          7.6575961113 0.049151908606 0 1.8278734684 0.0029087308794 0
          7.6185660362 -0.014890493825 0 4.370552063 0.049058083445 0
          2.7042403221 0.0079223886132 0 5.5740180016 0.160786286 0
          6.916973114 0.21240800619 0 1.5626852512 -0.0012412354117 0
          5.9786963463 0.21424008906 0 7.0118088722 0.11015877873 0
          1.7824997902 0.0063707735389 0 7.2407488823 0.17571258545 0
          3.556702137 0.063705772161 0 3.6211438179 0.026184994727 0
          1.7627283335 0.010097957216 0 6.2432012558 0.20551460981 0
          6.5555324554 0.24167560041 0 2.6581346989 0.015513719991 0
          7.6623482704 -0.03842042014 0 7.4954237938 0.1179882139 0
          7.25796175 -0.020073177293 0 0 0 0
          0 0 0 0 0 0
          0 0 0 2.4213252068 0.015563225374 0
          1.7449748516 0.0062896586023 0 0 0 0
          6.5007677078 0.12180544436 0 2.7079744339 0.018781170249 0
          4.0223059654 0.087892703712 0 5.6449074745 0.19089874625 0
          3.5217008591 0.047053586692 0 4.5579400063 0.13684825599 0
          4.5918736458 0.11742401868 0 0 0 0
          5.1483488083 0.15856605768 0 7.5831236839 0.015541927889 0
          7.2729258537 0.20128595829 0 1.7229933739 0.0050041056238 0
          7.4341440201 -0.10993342847 0 1.5343860388 -0.0028936804738 0
          3.5432598591 0.068168483675 0 5.57417202 0.17041599751 0
          6.7755508423 -0.0086826970801 0 0 0 0
          6.3111720085 0.23840300739 0 6.9854102135 0.25814217329 0
          0 0 0 5.9132289886 0.11376403272 0
          1.6188257933 0.009884275496 0 0 0 0
          7.0322079659 -0.12293734401 0 7.4939975739 -0.11897420883 0
          2.5727460384 0.040466308594 0 7.4461641312 0.080836236477 0
          2.4590475559 0.01499351114 0 3.6497912407 0.095402225852 0
          0 0 0 6.2271461487 0.010431740433 0
          4.7984218597 0.12717245519 0 4.0618848801 0.13679461181 0
          1.6741036177 0.014102352783 0 4.4970674515 0.11831843108 0
          2.9153869152 0.061875421554 0 1.5298541784 -0.0091164950281 0
          7.4316568375 -0.071824140847 0 0 0 0
          7.1928563118 -0.20475588739 0 7.2668886185 0.1550000459 0
          5.1458702087 0.10283192247 0 6.2888212204 0.21381126344 0
          3.6681315899 0.067403525114 0 6.5328373909 -0.11738125235 0
          5.5722222328 0.16724877059 0 6.8660783768 0.2337051928 0
          5.5533418655 0.019933799282 0 0 0 0