<?xml version="1.0"?>
<VTKFile type="PolyData" version="0.1" byte_order="LittleEndian" compressor="vtkZLibDataCompressor">
  <PolyData>
    <Piece NumberOfPoints="1041" NumberOfVerts="0" NumberOfLines="0" NumberOfStrips="0" NumberOfPolys="1940">
      <PointData>
        <DataArray type="Float32" Name="PRESSURE" format="ascii" RangeMin="-12.390873909" RangeMax="2.104269743">
          0 0.8893930316 0 0.57444161177 0.87230354548 0
          0.69684034586 0.2732719183 0.96348488331 0.57719260454 0.95432651043 0
          0.28862276673 0.11652462184 0.92904174328 0.60482138395 0.94516980648 0
          0.6158079505 0.25392821431 0.39704161882 0.72336006165 0.13947790861 0.65511912107
          0 0.47990128398 0.29303774238 0.59884172678 0.1694945395 0.51444369555
          0.086262710392 0.30822446942 0 0.4718375802 0.36605495214 0.26750266552
          0.22532843053 0.4521292448 0.14426699281 0.43651473522 0.31597599387 0.07191234082
          0.32740160823 0 0.34473359585 0.37594538927 0.28256878257 0.40515345335
          0.23390653729 0.17736661434 0.46322095394 0.11397534609 0.053866449744 0.38347956538
          0.23591926694 0.3590002954 0.19354461133 0.52318525314 0 0.30951398611
          0.26869347692 0.14614212513 0.31910341978 0.30460488796 0.091768994927 0.33926510811
          0.044561505318 0.21366046369 0.30057954788 0.24685710669 0.13424736261 0.17496626079
          0.28378555179 0 0.26109552383 0.26953107119 0.34799587727 0.32029798627
          0.089097850025 0.28886029124 0.21522802114 0.0430338718 0.166970402 0.22853340209
          0.1979020685 0.30012983084 0.25198706985 0.24703785777 0 0.25824600458
          0.12204347551 0.26813659072 0.21111698449 0.33817476034 0.26915031672 0.27959567308
          0.19341591001 0.034065186977 0.079262234271 0.15334647894 0.18690730631 0.23738840222
          0.21317951381 0.2302736789 0.28358432651 0.25999060273 0.17417955399 0
          0.27368468046 0.033333189785 0.28158548474 0.13139893115 0.2853500545 -0.053772479296
          0.043686822057 0.22961968184 0.24785155058 0.21023638546 0.17570023239 0.33088344336
          0.26535943151 0.20441710949 0.26762896776 0.090903058648 -0.20099622011 0
          -0.029759997502 0.2819134593 0.16191768646 -0.17419196665 0.2724249661 0.05186407268
          0.2409953028 0.28917258978 0.22689431906 0.39720472693 0.25724068284 0.1351095885
          0.2042644769 0.27414011955 0.10104479641 0 0.21552024782 0.16374029219
          0.1046416238 0.19259229302 0.29460811615 0.3105481267 0.26104992628 0.17625154555
          0.2403421104 -0.23249389231 0.059865757823 0.32733163238 0.15509086847 0.2676358223
          0.21716877818 0.22389654815 0.28501516581 -0.19642534852 0 0.22797609866
          0.31343623996 0.12510755658 0.2727380693 0.30252712965 0.31160256267 -0.98841369152
          0.21379978955 0.25715559721 0.062862642109 0.26103711128 0.31383144855 0.17416848242
          0.32774811983 0.20700870454 0.38996192813 0.27885055542 0.23717334867 0.28118106723
          0 0.37613388896 0.23647405207 0.29966464639 0.31855347753 0.44699823856
          0.34248116612 0.17976015806 0.24476900697 0.45233502984 0.37976631522 0.083802849054
          0.23708206415 0.38192760944 0.34172067046 0.2365758121 0.24942928553 0.24697031081
          0.36946037412 0.42027315497 0.27045109868 0.26099327207 0.28896471858 0.44639492035
          0 0.75807023048 0.24195075035 0.41714423895 0.23984929919 0.46190956235
          0.36960238218 0.21906463802 0.3178152144 0.34154394269 0.42556416988 0.29093748331
          0.4004290998 0.46674177051 0.10413400084 0.26018375158 0.2335884124 0.25099149346
          0.2804646194 0.26829117537 0.29738119245 0.36717027426 0.46377530694 0.27785107493
          0.40033739805 0.91519713402 0 1.152056098 0.30309593678 0.34037974477
          0.20632958412 0.65127539635 0.44652327895 0.23486404121 0.29890495539 0.24936591089
          0.58097088337 0.39462608099 0.36236771941 0.51990836859 0.43465611339 0.30290332437
          0.32625037432 1.1997525692 0.26037663221 0.41208317876 0.19006548822 0.22666700184
          0.24551454186 0.49850061536 0.25980472565 0.42136371136 0.39077588916 0.28050282598
          0.91549646854 0.42664477229 0.3562925756 1.1752448082 0 0.36489087343
          0.54746115208 0.2481161952 0.47484451532 0.31442463398 0.47031208873 0.179462865
          0.60456204414 0.7209635973 0.53887575865 0.41898143291 0.32540425658 0.38545084
          0.24579291046 1.0106674433 0.34746932983 0.55391418934 0.45771962404 0.55240482092
          0.252569139 0.19624447823 0.51274436712 0.29494428635 0.22848291695 0.50543290377
          0.41360232234 0.44518697262 0.381057024 0 0.99800544977 0.89574700594
          0.42332670093 0.33876180649 0.81561487913 0.25153174996 0.83588200808 0.55789917707
          0.63283079863 0.11726582795 0.43681159616 0.74850392342 0.40870425105 0.25275367498
          0.37351500988 0.25544288754 0.49610450864 0.90045374632 0.25871944427 0.37555077672
          0.58248448372 0.47528582811 0.71388483047 0.088599845767 0.4365773797 0.32169997692
          0.51961201429 0.23497198522 0.43584829569 0.46026092768 0.40895691514 0
          0.99065715075 0.70822757483 0.72014153004 0.82520735264 0.27939036489 0.83780133724
          0.37129080296 0.20750835538 0.10872844607 0.57960957289 0.13302847743 0.12127163261
          0.64023888111 0.77484536171 0.19387742877 0.45543542504 0.48199382424 0.26952844858
          0.43459126353 0.82960689068 0.67526322603 0.30950516462 0.40825685859 0.62006270885
          0.53504210711 0.5050047636 0.47155338526 0.35783568025 0.065997302532 0.89886569977
          0.43866491318 0.4589343667 0.037221163511 0.47181034088 0.76472568512 0.28495249152
          0.35994243622 0.41476619244 0.25421988964 0.081624627113 0.20078270137 0.6008349061
          -0.13141752779 0.68286782503 0.46907356381 0.31889024377 0.45597326756 0.48828426003
          0.35976058245 0.5429598093 0.61071610451 0.45183524489 0.54145854712 0.50477200747
          0.41068783402 0.19962507486 0.47420355678 0.01222028397 0.72619563341 0.47124770284
          0.70863592625 0.48108100891 0.039690375328 0.14514929056 0.46212881804 0.48947587609
          0.55070567131 0.30404910445 -0.26431792974 0.36802020669 0.50591254234 0.56594383717
          0.48436647654 0.48624068499 0.48547390103 0.43192523718 0.48055320978 0.48783817887
          0.54831111431 -0.3319118917 -0.24196952581 0.49171724916 0.4986550808 0.47943618894
          0.71990907192 0.489787817 0.63089472055 0.097696438432 0.47929337621 0.42112863064
          0.50591385365 0.52796107531 -0.44194504619 -0.35051211715 0.46862262487 0.38906690478
          0.44499859214 0.5092023015 0.60158032179 0.49193802476 0.42475786805 0.51276248693
          0.56755459309 0.47347232699 0.4326530695 -0.21148614585 0.43800470233 -1.0398204327
          0.56576251984 0.73434722424 0.44554641843 0.34172794223 0.45525065064 0.50703954697
          0.45481470227 0.45251330733 0.47848126292 0.5697337389 0.64468765259 0.43201583624
          -0.4914484024 0.36948642135 0.4444450438 0.49151694775 0.54282784462 0.29359602928
          0.52047646046 0.43460556865 0.34230867028 0.74206930399 0.89492028952 0.70939922333
          0.35136535764 0.61867105961 0.22457669675 0.40163549781 0.22485123575 0.44637322426
          0.49553757906 0.1921415478 0.34926536679 0.88562864065 0.21076741815 0.36645364761
          0.61367499828 0.13514827192 0.39899104834 0.54663354158 0.45307946205 0.18829485774
          0.51979237795 1.2032067776 0.2113994509 0.37231877446 0.68220102787 0.13123619556
          0.14490753412 0.093257196248 0.14883936942 0.46426317096 1.2033568621 0.83094328642
          0.044785149395 0.22423045337 0.36386865377 0.024167975411 0.039001062512 0.98975330591
          -0.049999464303 0.24647079408 0.56821429729 0.53957909346 0.67028415203 -0.12095069885
          0.49310228229 1.1585578918 0.02743761614 0.36156615615 0.69758999348 -0.18036086857
          0.021700764075 -0.16566975415 0.23652309179 -0.20389969647 0.88942110538 -0.18509367108
          0.096290767193 -0.23328894377 -0.15950217843 0.98967576027 0.72660899162 -0.19467528164
          0.21774482727 0.33383625746 0.57065445185 0.55185163021 0.075315363705 -0.41432359815
          0.486579597 0.60396796465 -0.20317558944 -0.40592911839 -0.20416261256 -0.41879072785
          0.20103499293 0.051684655249 0.89369171858 -0.43140587211 0.36751830578 -0.43254223466
          -0.52107357979 0.6150200963 -0.16746079922 -0.67215698957 -0.3322339654 0.43969139457
          0.59183490276 0.011941749603 0.20777486265 -0.61824077368 -0.16216424108 0.52954614162
          -0.61144423485 0.51976597309 -0.63804996014 -0.70954817533 -0.0051463977434 -0.20502328873
          -0.60285133123 0.2886634171 0.61032569408 0.73854571581 -0.59139937162 -0.97504842281
          -0.95354622602 -0.32415488362 -0.85105127096 0.77557837963 -0.84868681431 -0.21922127903
          -0.58135157824 0.013977703638 -0.41455882788 0.32977363467 -0.9599211216 0.58728647232
          -0.94293534756 -0.82798278332 -0.23453353345 0.55124974251 -1.118845582 0.19633460045
          -0.44588968158 0.81388610601 -1.0977377892 -1.3875248432 -0.60686326027 -0.81029784679
          -1.0542629957 -0.40103277564 -0.087137930095 -1.0059142113 0.3526058197 -0.59917712212
          -1.4812505245 0.50358366966 -1.0378471613 -0.88330727816 0.56623840332 -1.219779253
          -1.3100085258 -1.0391910076 -1.9837912321 0.053969021887 -1.2812191248 -0.40491548181
          -0.62537962198 -1.2915773392 -0.7876945138 -1.0463740826 -1.2753317356 -0.57124996185
          -0.23818771541 0.38605174422 -1.2718135118 0.17859233916 -1.4743589163 0.69521957636
          -0.82907682657 -1.2879976034 -1.4897096157 -1.0735341311 -1.4985408783 -1.5986880064
          -1.0260277987 -1.2438610792 -1.6017581224 -0.18187919259 -0.80075567961 -0.60020953417
          0.010275879875 -1.649228096 -1.0043932199 -1.2397552729 -0.017034322023 -1.6373225451
          0.27831721306 -0.82413703203 -1.6443115473 -0.4111482203 -1.7797942162 -1.2552015781
          -1.6662065983 -1.8602546453 -1.9807854891 -1.0193867683 -1.5822600126 -2.0302636623
          -1.2474110126 -2.1124660969 -1.510702014 -0.35785779357 -0.15418180823 -1.0209978819
          -0.84632831812 -2.1266298294 -0.05280052498 -1.2606873512 -2.1360228062 -1.5193378925
          -1.0646020174 -1.9680594206 -2.0498580933 -2.2142269611 -1.7357491255 -0.57304054499
          -2.4179329872 -1.5651944876 -1.2766650915 -2.54286623 -1.9339667559 -0.27597126365
          -2.6278655529 -0.57631802559 -0.10212635249 -1.0167232752 -1.6343765259 -1.8742516041
          -2.0817494392 -1.2822949886 -2.7132501602 -1.9465373755 -1.6677789688 -2.6189062595
          -2.4426019192 -2.4600915909 -1.2986270189 -2.1931426525 -2.9883291721 -3.0120756626
          -0.86646360159 -2.0697894096 -0.68225556612 -2.3203213215 -1.6673382521 -2.8966736794
          -0.34454655647 -3.1953368187 -2.1677708626 -1.2439815998 -2.5936653614 -2.366656065
          -1.6706156731 -3.0825946331 -2.1970059872 -3.1968808174 -2.5194783211 -2.8703491688
          -3.4318294525 -2.7099297047 -1.6689382792 -2.9469602108 -1.08530581 -0.63750600815
          -2.6703071594 -3.395660162 -1.2579337358 -2.1672434807 -2.7809443474 -3.4142894745
          -3.0083806515 -2.7775409222 -1.5236412287 -2.9179430008 -3.3397490978 -3.2692027092
          -2.1477737427 -1.6749989986 -2.7211296558 -1.0615336895 -3.1175694466 -3.0341346264
          -3.0872867107 -3.6128118038 -3.260689497 -2.0843901634 -1.7708039284 -3.1763021946
          -3.5547850132 -3.5540773869 -3.440713644 -2.6742742062 -3.0629241467 -3.1334748268
          -3.5030796528 -3.2625930309 -3.233925581 -1.8306990862 -1.5443782806 -3.328946352
          -2.6701917648 -3.2552118301 -3.4170930386 -3.2569189072 -3.1971380711 -3.4114518166
          -2.2775256634 -2.4086833 -3.5775277615 -3.465294838 -3.423126936 -3.2876629829
          -3.1755936146 -3.4311206341 -3.4259262085 -3.4125859737 -3.3978049755 -3.5236723423
          -2.0074036121 -3.4852075577 -2.2726640701 -3.271543026 -3.4982089996 -3.5387859344
          -3.421851635 -3.2948241234 -3.45895648 -3.0138852596 -3.46788311 -3.3618881702
          -3.3759253025 -3.399064064 -2.6577267647 -3.439355135 -3.4236073494 -2.0494744778
          -3.5290503502 -3.5963189602 -3.4764921665 -3.3810133934 -2.2813625336 -3.4248595238
          -3.4017379284 -3.4007632732 -3.5267019272 -3.487098217 -3.3962020874 -3.4755110741
          -3.4373111725 -3.5922520161 -3.4085474014 -3.469255209 -3.4882781506 -2.4215295315
          -3.0691349506 -3.409327507 -2.6231954098 -3.5369024277 -3.6080565453 -3.5311872959
          -3.5187048912 -3.4252028465 -3.5714068413 -3.5980672836 -3.545519352 -3.5098483562
          -3.5642981529 -3.5359652042 -3.4070804119 -3.5854992867 -3.5936467648 -2.9752941132
          -2.7250730991 -3.2948582172 -3.4217483997 -3.49370718 -3.6366517544 -3.7191214561
          -3.5269253254 -3.6425859928 -3.728770256 -3.4013834 -3.7231338024 -3.4432544708
          -3.6715688705 -3.6834690571 -3.7159943581 -3.732994318 -3.676825285 -3.3919346333
          -3.0142338276 -3.2743096352 -3.4170730114 -3.7926113605 -3.6830964088 -3.5238189697
          -3.8502540588 -3.9265546799 -3.9504334927 -3.6097164154 -3.4853723049 -3.9419283867
          -3.800978899 -3.9026279449 -3.9065468311 -3.4455785751 -3.3331794739 -3.9520738125
          -3.4550035 -3.9127392769 -3.9772291183 -3.4507837296 -4.0031733513 -3.906532526
          -3.6097698212 -4.1353201866 -4.2135782242 -3.8719642162 -4.253153801 -3.5554862022
          -4.1493062973 -4.1149392128 -3.5185284615 -3.4942464828 -4.0990386009 -3.5402507782
          -3.4624142647 -3.7978293896 -4.197763443 -4.1068453789 -4.1694822311 -3.4873347282
          -4.3685736656 -4.5106501579 -4.3022975922 -4.0984025002 -3.7404327393 -4.7444119453
          -4.4203290939 -4.4186587334 -4.049115181 -4.4637727737 -3.393376112 -3.6653523445
          -4.3853478432 -3.5383973122 -3.5679218769 -4.4310779572 -4.545068264 -4.3555121422
          -3.9477262497 -3.6613030434 -4.3784599304 -4.6328802109 -4.6862559319 -4.3195433617
          -5.0346193314 -3.9258565903 -5.0423760414 -4.4697213173 -3.5615706444 -4.8249092102
          -4.21037817 -3.8512806892 -3.7397475243 -4.7211565971 -4.7438321114 -3.7326686382
          -4.1700925827 -4.3341002464 -4.9530525208 -4.4628582001 -4.6783413887 -4.1600198746
          -5.0346474648 -4.658416748 -4.9759540558 -4.5417752266 -5.0276007652 -4.2060809135
          -3.7171792984 -4.1541047096 -4.4366188049 -5.1069598198 -3.9124166965 -5.0643239021
          -4.0234999657 -5.1584033966 -3.956628561 -4.6860466003 -4.844578743 -3.8572201729
          -5.4935646057 -3.8861231804 -4.7090163231 -4.088101387 -4.8154745102 -3.9065246582
          -4.5809726715 -3.6602039337 -4.170317173 -4.3447914124 -4.8487877846 -5.7240757942
          -5.0305461884 -4.709815979 -5.3860692978 -5.4333286285 -5.8856739998 -3.5112514496
          -5.1390433311 -5.1500048637 -6.2589588165 -2.97920084 -3.2490577698 -2.8311285973
          -5.0509638786 -3.3993830681 -4.1449251175 -3.1951413155 -5.0935425758 -4.4112005234
          -3.9795594215 -6.5186533928 -5.9439735413 -4.6779375076 -5.0460700989 -4.9849486351
          -6.3697338104 -5.4643540382 -7.0325255394 -3.3225882053 -4.812189579 -4.9635663033
          -3.2463593483 -7.4672207832 -3.0838763714 -3.0252768993 -4.3399043083 -2.456938982
          -4.4563674927 -4.5282034874 -7.1505093575 -0.90651911497 -4.5642981529 -2.1918373108
          -4.3999838829 -6.3085298538 -4.1006417274 -7.0042219162 -10.198561668 -4.9571170807
          -7.9409375191 -3.312384367 -3.7815020084 -3.3021805286 -3.3285815716 -3.2255961895
          -3.8764443398 -4.3207130432 -2.4331698418 -8.0067949295 0.23742426932 -4.1860055923
          2.0591571331 -10.015522003 -3.0977523327 -3.746450901 -4.1807975769 -12.390873909
          -6.9758601189 -2.8866307735 -12.101384163 -2.1191883087 -7.739238739 -2.9625859261
          -3.9778578281 -0.87053847313 -12.067368507 -3.6041865349 -12.343153 -2.3974738121
          -3.1920361519 -4.1304955482 -2.9380643368 2.104269743 -3.4983065128 -3.3477554321
          -3.0771288872 0.25006464124 -2.4177031517 -3.2352938652 -3.1627216339 -3.2836675644
          -3.3180704117 -3.2865686417 -3.285118103
        </DataArray>
        <DataArray type="Float32" Name="VELOCITY" NumberOfComponents="3" ComponentName0="X-VELOCITY" ComponentName1="Y-VELOCITY" ComponentName2="Z-VELOCITY" format="ascii" RangeMin="0" RangeMax="9.8244409561">
          0 0 0 0 0 0
          3.9626095295 0.073043070734 0 5.3665771484 0.23626331985 0
          4.0040550232 0.18766327202 0 5.7573347092 0.30798190832 0
          0 0 0 5.4149670601 0.078111238778 0
          4.5054168701 0.080215878785 0 5.3730340004 0.080519862473 0
          0 0 0 5.3834366798 0.080967105925 0
          5.4330878258 0.090350061655 0 5.4147267342 0.11073322594 0
          4.5028357506 0.040117356926 0 5.3821129799 0.044003721327 0
          0 0 0 5.4006853104 0.10731394589 0
          5.2004580498 0.012012712657 0 5.3482842445 0.08577477932 0
          5.4236073494 0.077690154314 0 4.4463787079 -0.028501262888 0
          5.3211750984 0.081037811935 0 0 0 0
          5.3119192123 0.075262650847 0 5.5126276016 0.029262512922 0
          5.2526845932 0.048588261008 0 5.226667881 -0.039081972092 0
          5.2482600212 0.047595392913 0 4.4713306427 -0.032487180084 0
          5.2666196823 0.051060162485 0 5.2466158867 0.028658412397 0
          5.2928004265 0.045725442469 0 0 0 0
          5.336019516 0.033255945891 0 5.2420854568 0.029742805287 0
          5.2495670319 0.037451904267 0 5.6158018112 0.0024957917631 0
          5.2748117447 0.039703339338 0 5.2444863319 -0.033544000238 0
          4.4343676567 -0.018426373601 0 5.2984614372 0.040560819209 0
          0 0 0 5.3197250366 0.037819299847 0
          5.2263197899 0.021675370634 0 5.2852802277 0.01982918568 0
          5.2412114143 0.02164542675 0 5.6528306007 0.0063474681228 0
          5.2652101517 0.025390518829 0 5.2888813019 0.030247051269 0
          5.2936782837 -0.03534225747 0 5.3063421249 0.03275834769 0
          5.3196973801 0.033354334533 0 4.3622608185 0.011703667231 0
          5.2823324203 0.02215542458 0 5.6835241318 -0.0031880629249 0
          5.3049697876 0.026094689965 0 0 0 0
          5.333190918 0.030002878979 0 5.2570538521 0.007087209262 0
          5.2614092827 0.015751998872 0 5.3155221939 0.028802663088 0
          5.2241191864 0.0061002909206 0 5.252199173 -0.03735627979 0
          5.3242931366 0.02846022509 0 4.0260643959 -0.011246172711 0
          5.3303718567 0.027019416913 0 5.312379837 0.023693384603 0
          5.2332510948 0.0070071839727 0 5.3049426079 0.021007638425 0
          5.3161363602 0.02420321852 0 5.3128328323 0.024180134758 0
          0 0 0 5.3347868919 0.023758046329 0
          5.7155513763 0.014061274007 0 5.2939581871 0.018633065745 0
          5.2674064636 -0.034802794456 0 5.2389416695 0.0078868456185 0
          5.3190107346 0.021933970973 0 5.2743549347 0.01499926392 0
          4.068520546 -0.026479270309 0 5.3228993416 0.01829485409 0
          5.305044651 0.017936447635 0 5.3057775497 0.01769656688 0
          5.3013277054 0.018672671169 0 5.247209549 0.013343288563 0
          5.306499958 0.016229564324 0 0 0 0
          5.3278436661 0.014721254818 0 5.7578215599 -0.00048681622138 0
          5.3087239265 0.015720989555 0 5.3039646149 0.014478475787 0
          5.3055438995 -0.009972544387 0 5.2346577644 0.013489803299 0
          5.2925491333 0.019129034132 0 5.2919893265 0.011849625036 0
          4.0370988846 -0.019991742447 0 5.3197045326 0.010415512137 0
          5.3116984367 0.011540948413 0 5.3040194511 0.01299243141 0
          5.3005237579 0.012720854022 0 5.2969412804 0.014698393643 0
          5.2932429314 0.015183772892 0 5.7765908241 0.015337795019 0
          5.2702074051 0.0096145253628 0 5.3013868332 0.014059862122 0
          0 0 0 5.3254909515 0.0059057604522 0
          5.3062262535 0.014838590287 0 5.3510422707 -0.012454330921 0
          5.229557991 -0.0024279553909 0 5.303902626 0.010216640308 0
          5.307949543 0.01459051203 0 4.0391750336 -0.046732529998 0
          5.3186612129 0.002071096329 0 5.2917709351 0.013491314836 0
          5.2921476364 0.01263531018 0 5.3031349182 0.011030343361 0
          5.3022341728 0.01145648025 0 5.1743955612 0.02531965822 0
          5.3004889488 0.016124827787 0 5.7885346413 0.074407741427 0
          5.2943096161 0.011178695597 0 5.3112416267 0.0019973812159 0
          0 0 0 5.3279929161 -0.003003438469 0
          5.4420681 0.01029929705 0 5.2960600853 0.011810698546 0
          5.2976107597 0.008342933841 0 4.4018411636 0.014448732138 0
          5.2791447639 0.011805073358 0 5.3215246201 -0.0056616193615 0
          5.2937517166 0.012309293263 0 5.3017015457 0.012131784111 0
          5.3058886528 0.0097488826141 0 5.2274312973 0.0052327867597 0
          5.2915296555 0.011965072714 0 5.3058791161 0.00051482470008 0
          5.2960920334 0.012175578624 0 5.2937626839 0.009988265112 0
          0 0 0 5.3314590454 -0.011750907637 0
          5.2140479088 -0.0010194523493 0 5.8617076874 0.10910446942 0
          5.3169083595 -0.0073089837097 0 5.2922267914 0.0086773242801 0
          5.2901554108 0.009614395909 0 5.2995038033 0.014189363457 0
          5.2944002151 0.010292269289 0 5.304851532 0.0013454778818 0
          5.3060483932 0.0091902855784 0 4.3149981499 -0.058573938906 0
          5.3244409561 -0.012536918744 0 5.3129425049 0.025678131729 0
          5.3149175644 -0.0061022369191 0 5.2902588844 0.012146636844 0
          5.2906537056 0.0089963395149 0 5.1246027946 -0.022990170866 0
          5.2958364487 0.0080603603274 0 0 0 0
          5.3222126961 -0.017427965999 0 5.2855787277 0.013044034131 0
          5.2874679565 0.0072921579704 0 5.3149580956 -0.010984306224 0
          5.3280682564 0.03477666527 0 5.8586001396 0.22160163522 0
          5.2735896111 0.0017859665677 0 4.1213259697 -0.011630786583 0
          5.3083295822 0.0052707595751 0 5.3094911575 0.0070239892229 0
          5.2959837914 -0.018405584618 0 5.306394577 0.0074560721405 0
          5.2908668518 0.0022560865618 0 5.2982010841 -0.0048846122809 0
          5.2657074928 0.00029396446189 0 5.3137259483 -0.0025513283908 0
          5.2517108917 0.037780836225 0 5.2907328606 0.011409974657 0
          5.2848749161 0.012660889886 0 0 0 0
          5.2795710564 -0.024090196937 0 5.2911000252 0.056574061513 0
          5.3102498055 0.010556281544 0 5.2974348068 0.007055296097 0
          5.2927417755 0.0073376963846 0 5.7913746834 0.28166589141 0
          5.2928543091 0.0086426157504 0 5.2455806732 -0.016753174365 0
          5.303920269 0.0018260376528 0 5.2664494514 0.0066278004088 0
          5.2538251877 -8.6837690105e-006 0 5.2595467567 -0.02938679792 0
          5.3082838058 0.010689550079 0 5.3050041199 0.034123510122 0
          5.2925934792 0.0058680935763 0 5.226793766 0.0026113563217 0
          5.3067307472 0.013658712618 0 5.2841010094 0.011774261482 0
          5.2861924171 0.0042153391987 0 5.2545309067 0.018916232511 0
          5.3065133095 0.0033426703885 0 5.2330675125 0.0097636505961 0
          5.2900123596 0.010229064152 0 0 0 0
          5.3400917053 -0.069251045585 0 4.8357477188 0.1945861727 0
          5.3110070229 0.0096098026261 0 5.2368617058 -0.0068343351595 0
          5.3184280396 0.01342914626 0 5.35364151 0.012147688307 0
          5.2895874977 0.00072652223753 0 5.2834854126 -0.032209131867 0
          5.2964873314 0.005088747479 0 5.2938432693 0.0062840417959 0
          5.3052244186 0.053269077092 0 5.2292079926 0.011808950454 0
          5.2741289139 -0.0037980813067 0 5.2516012192 0.017401756719 0
          5.3627510071 -0.071493446827 0 5.3107686043 0.0033496706747 0
          5.3240141869 0.014281817712 0 5.2787222862 0.01485380996 0
          5.2914419174 -0.02997505106 0 5.2362055779 0.022721268237 0
          5.234266758 -0.0097502321005 0 5.2949018478 0.0026318086311 0
          5.2240247726 -0.0059429029934 0 5.3079414368 0.00013678315736 0
          5.287694931 -0.0066089094616 0 5.1977477074 0.11692442745 0
          5.35572052 -0.040899742395 0 0 0 0
          5.2087993622 0.011956511065 0 5.2946443558 0.0064224363305 0
          5.3302621841 0.0116800908 0 5.2971959114 0.05088615045 0
          5.2532982826 -0.013591285795 0 5.3997774124 -0.069584690034 0
          5.2901415825 0.0089899543673 0 5.2486796379 0.023476468399 0
          5.2500910759 0.014939215966 0 5.2957596779 -0.0015846110182 0
          5.2959322929 0.0041496031918 0 5.2104473114 -0.011821325868 0
          5.2821440697 -0.017671452835 0 5.2237815857 0.017812399194 0
          5.2960500717 0.0052628675476 0 4.9276108742 0.04857609421 0
          5.3343434334 -0.004454983864 0 5.4417815208 0.0055598579347 0
          5.4133172035 -0.041761349887 0 5.2665753365 0.019501402974 0
          5.2754187584 0.015415915288 0 5.225358963 -0.029379500076 0
          5.2092337608 0.026736507192 0 5.4898605347 0.0026822346263 0
          5.2973623276 0.0009895444382 0 5.3100643158 -0.0019563024398 0
          5.2095336914 0.0095242587849 0 5.2986650467 -0.011055928655 0
          5.295071125 0.0070565617643 0 0 0 0
          5.7151560783 -0.25723168254 0 5.5321378708 0.01870793663 0
          5.4740977287 -0.025247892365 0 5.1955924034 0.024640280753 0
          5.268851757 -0.03601334244 0 5.2867164612 0.0080642923713 0
          5.4006285667 -0.030797811225 0 5.2917251587 0.012164502405 0
          5.1976704597 -0.030976234004 0 5.2564306259 -0.016592795029 0
          5.1983819008 -0.044592216611 0 5.3001236916 -0.0052626891993 0
          5.5682969093 0.032340615988 0 5.2998452187 0.0052911117673 0
          5.3534994125 -0.012094813399 0 4.8885388374 -0.015500846319 0
          5.2952518463 0.0062631671317 0 5.3437709808 0.026900628582 0
          5.3023571968 -0.027720345184 0 5.412088871 -0.17536446452 0
          5.2685823441 0.011568583548 0 5.2068395615 0.032165765762 0
          5.3767857552 0.065543107688 0 5.3058795929 -0.0060962559655 0
          5.6008763313 0.036793585867 0 5.2439136505 -0.06012243405 0
          5.3044662476 0.0017544885632 0 5.3068037033 -0.017135096714 0
          5.2958712578 0.010251302272 0 4.4344944954 -0.033193446696 0
          0 0 0 5.2200555801 -0.041811659932 0
          5.4225139618 0.072459042072 0 5.2821717262 0.00876211375 0
          4.2243747711 -0.17454175651 0 5.6133642197 0.019716316834 0
          4.5754547119 -0.030909508467 0 5.1848454475 -0.08703892678 0
          5.1739397049 -0.067721843719 0 5.2554297447 0.01840422675 0
          5.3103885651 -0.0052151870914 0 4.6306357384 0.0099991392344 0
          5.3050422668 0.009914397262 0 5.2223625183 0.015940770507 0
          5.4636955261 0.068152494729 0 5.3709416389 -0.028644571081 0
          5.3077940941 -0.056401517242 0 4.8867406845 -0.028214640915 0
          5.2689409256 0.0092022297904 0 5.291326046 0.010331768543 0
          4.5376796722 0.031564690173 0 5.3180632591 -0.037343792617 0
          5.2395939827 -0.069126293063 0 5.6257638931 0.02647870779 0
          4.4525337219 0.050077199936 0 5.2968039513 -0.0092893866822 0
          5.2820296288 -0.087494634092 0 5.474339962 0.074995726347 0
          5.3159899712 0.0069456333295 0 5.3230791092 -0.020447185263 0
          5.2962713242 0.018022472039 0 0 0 0
          0 0 0 0 0 0
          0 0 0 5.2097468376 -0.086562901735 0
          4.3597922325 0.04891262576 0 0 0 0
          5.2743005753 0.010881475173 0 5.557949543 0.040514986962 0
          5.3114266396 0.014125217684 0 5.1445245743 -0.13420344889 0
          5.6688380241 -0.037413861603 0 5.1876802444 0.016925720498 0
          5.1550040245 -0.11564243585 0 0 0 0
          5.3836984634 -0.038663659245 0 5.3279652596 -0.0014924842399 0
          5.3376131058 -0.050239529461 0 4.2451190948 0.044812344015 0
          5.3120756149 0.021230334416 0 4.7582530975 -0.041890285909 0
          5.2237029076 -0.10292952508 0 5.2657160759 -0.0024825609289 0
          5.2833895683 0.018995426595 0 0 0 0
          5.2619123459 -0.13783743978 0 5.3412041664 -0.097259245813 0
          0 0 0 5.2854466438 -0.0068885884248 0
          3.9703335762 0.033007651567 0 0 0 0
          5.2940044403 0.031636614352 0 5.3334727287 0.020275486633 0
          5.5170097351 0.073594816029 0 5.3508706093 -0.020125372335 0
          5.2030997276 -0.11084979028 0 5.4632353783 -0.066142916679 0
          0 0 0 5.2632322311 0.016807327047 0
          5.3761057854 -0.068125419319 0 5.124519825 0.052699904889 0
          4.0199289322 0.065812051296 0 5.1274132729 -0.16963000596 0
          5.9087619781 0.02528151311 0 4.652718544 -0.068865858018 0
          5.3544807434 0.015286721289 0 0 0 0
          5.3175954819 0.042197547853 0 5.3772902489 -0.060263317078 0
          5.2621808052 -0.0014364167582 0 5.2597417831 -0.20630414784 0
          5.1783442497 -0.14997705817 0 5.2704539299 0.034521393478 0
          5.0915575027 -0.22395765781 0 5.3591504097 -0.16385909915 0
          5.2705922127 -0.0046961903572 0 0 0 0
          5.3513355255 0.04240277037 0 3.3161256313 0.034086078405 0
          0 0 0 5.2894005775 0.055452976376 0
          5.1918377876 -0.13253261149 0 5.3908338547 -0.0051757120527 0
          5.990547657 -0.10370509326 0 5.1909408569 0.031047128141 0
          5.2482471466 0.027125064284 0 5.4060139656 -0.11782857776 0
          5.0752668381 -0.24218268692 0 5.3560333252 -0.06550052017 0
          3.9358131886 0.0045807701536 0 0 0 0
          5.2360253334 -0.28177934885 0 4.5687475204 -0.061286192387 0
          5.2516994476 0.049913156778 0 5.388241291 0.046370990574 0
          5.3230733871 0.073937647045 0 5.2627735138 -0.0079525429755 0