<?xml version="1.0"?>
<VTKFile type="PolyData" version="0.1" byte_order="LittleEndian" compressor="vtkZLibDataCompressor">
  <PolyData>
    <Piece NumberOfPoints="1041" NumberOfVerts="0" NumberOfLines="0" NumberOfStrips="0" NumberOfPolys="1940">
      <PointData>
        <DataArray type="Float32" Name="PRESSURE" format="ascii" RangeMin="-9.7579298019" RangeMax="7.0827760696">
          0 0.75431460142 0 0.49230387807 0.74748712778 0
          0.59157902002 0.22893077135 0.84138154984 0.50779539347 0.83839613199 0
          0.23813802004 0.094169422984 0.81750053167 0.537979424 0.81738084555 0
          0.52960669994 0.22713498771 0.35292831063 0.62080687284 0.12823204696 0.54441380501
          0 0.41239693761 0.25951719284 0.52356934547 0.14769020677 0.43934994936
          0.073315024376 0.26688024402 0 0.38745486736 0.319958359 0.22659771144
          0.19787192345 0.39734652638 0.12450447679 0.37291797996 0.27064085007 0.062929704785
          0.27219191194 0 0.30979341269 0.33765795827 0.24580475688 0.36027354002
          0.20759487152 0.15784148872 0.41458928585 0.10134691745 0.048992637545 0.35641908646
          0.21007704735 0.32587167621 0.17133761942 0.47975581884 0 0.27852037549
          0.23902770877 0.12907327712 0.28842550516 0.27760502696 0.080818869174 0.3331349194
          0.039527729154 0.19135114551 0.27132207155 0.22282278538 0.11909238994 0.15622806549
          0.26938584447 0 0.24218101799 0.2431127876 0.33638349175 0.29940873384
          0.079038523138 0.26433050632 0.2346059978 0.038264822215 0.14784991741 0.20498923957
          0.17589594424 0.27762967348 0.22820316255 0.26264345646 0 0.25519928336
          0.10744973272 0.2445435524 0.22201231122 0.32333791256 0.25982293487 0.25854974985
          0.23622280359 0.029378829524 0.069147668779 0.13563241065 0.16637612879 0.21357402205
          0.19107739627 0.23459589481 0.26776191592 0.23692692816 0.21531827748 0
          0.25139522552 0.062478899956 0.26827734709 0.11541225761 0.26487824321 0.0053271776997
          0.035786669701 0.20630340278 0.22443802655 0.18755894899 0.15395894647 0.32686689496
          0.24950158596 0.21398493648 0.24511483312 0.077462852001 -0.13981460035 0
          0.010262175463 0.26093372703 0.14024110138 -0.11066389829 0.26231616735 0.046246699989
          0.21807844937 0.2709787786 0.2034200877 0.39397388697 0.23340018094 0.11512067169
          0.1794847697 0.2525369823 0.1650172919 0 0.20908275247 0.17887677252
          0.090642929077 0.16756743193 0.27091899514 0.29297229648 0.23661544919 0.15174275637
          0.21631285548 -0.16996787488 0.051607888192 0.31276208162 0.13441239297 0.24519239366
          0.18891169131 0.22411455214 0.26340147853 -0.12611271441 0 0.20088800788
          0.29291456938 0.10330422223 0.2611271441 0.3157979548 0.29458799958 -0.91442388296
          0.18255800009 0.25640070438 0.048081360757 0.23682621121 0.2944034636 0.14246596396
          0.31050831079 0.17169177532 0.37707957625 0.2559736371 0.21083129942 0.29889968038
          0 0.36085736752 0.20562113822 0.2783203125 0.29632326961 0.42393735051
          0.32326570153 0.15817150474 0.20575816929 0.43846008182 0.36054608226 0.066619127989
          0.20831726491 0.36172935367 0.31956896186 0.19568023086 0.21241351962 0.22181390226
          0.3485840261 0.39738407731 0.24748238921 0.21623724699 0.26671406627 0.44811663032
          0 0.72387897968 0.21622702479 0.39063566923 0.20533402264 0.43842417002
          0.34578222036 0.1888512969 0.29576477408 0.31890618801 0.39437660575 0.24650532007
          0.37542468309 0.43139839172 0.090563781559 0.2361215204 0.2030903995 0.22851756215
          0.22304224968 0.225955531 0.23910774291 0.34229460359 0.42580884695 0.25632897019
          0.37258324027 0.85497629642 0 1.0842747688 0.25128865242 0.31744816899
          0.18254426122 0.58831489086 0.41357088089 0.18924689293 0.27583479881 0.21269133687
          0.52642780542 0.36493772268 0.33569404483 0.46028116345 0.39865463972 0.2548212111
          0.30264487863 1.0920689106 0.23998214304 0.33921247721 0.14185583591 0.19687716663
          0.22491018474 0.45546603203 0.21716715395 0.35437092185 0.36021226645 0.25901973248
          0.82903325558 0.39035454392 0.33012628555 1.0721637011 0 0.29572996497
          0.47548887134 0.21613094211 0.42491677403 0.29045549035 0.39498862624 0.15990374982
          0.53106176853 0.62282067537 0.47629964352 0.38441228867 0.26743340492 0.35425904393
          0.23015883565 0.88102447987 0.3220565021 0.46538972855 0.40513339639 0.45463421941
          0.23367916048 0.17183639109 0.42197212577 0.27395874262 0.18326927722 0.41829359531
          0.37658306956 0.3992202878 0.3511364758 0 0.86641722918 0.75836855173
          0.33598223329 0.31505489349 0.67059612274 0.22219702601 0.70714527369 0.45664000511
          0.51215642691 0.10694660991 0.38828003407 0.63983780146 0.37047737837 0.2387958616
          0.29988601804 0.24330046773 0.41735464334 0.73366719484 0.2415395081 0.34721717238
          0.46726804972 0.41437852383 0.54343116283 0.071751408279 0.33854842186 0.2992092073
          0.40729549527 0.18229977787 0.38648119569 0.38972324133 0.37389805913 0
          0.80196106434 0.56727820635 0.5936781168 0.62453240156 0.20708923042 0.7372187376
          0.34337282181 0.17507238686 0.10677042603 0.41780209541 0.13327656686 0.11524966359
          0.45512837172 0.65119367838 0.18526417017 0.38607531786 0.37871205807 0.21371212602
          0.38671511412 0.61023676395 0.45105141401 0.29251208901 0.37321060896 0.49403989315
          0.35061350465 0.35313215852 0.36203536391 0.33095809817 0.044696591794 0.64499485493
          0.39182081819 0.39595374465 0.041621491313 0.36804464459 0.49565684795 0.28648623824
          0.27250796556 0.37974566221 0.2430486232 0.082462839782 0.20469431579 0.33584740758
          -0.11221884191 0.40057864785 0.36970022321 0.24589642882 0.37751638889 0.33813172579
          0.33763903379 0.2402716428 0.31622460485 0.40748906136 0.21425060928 0.23380057514
          0.37463307381 0.17161372304 0.3769685626 0.037870172411 0.39617073536 0.40076130629
          0.36406126618 0.33509963751 0.057629141957 0.14567306638 0.4112201035 0.22266787291
          0.18121656775 0.28839820623 -0.22186045349 0.35927966237 0.083867371082 0.19436450303
          0.41811525822 0.33639720082 0.37924695015 0.40101402998 0.24473048747 0.083168305457
          0.1556520462 -0.27200317383 -0.21622775495 0.43956705928 0.044025182724 0.089828945696
          0.2779969573 0.33519026637 0.16877859831 0.1199452728 0.24940244853 0.40959370136
          0.39901351929 0.45809429884 -0.3783891201 -0.30869179964 0.10546221584 0.36385685205
          -0.099278256297 0.031284183264 0.10915593058 0.261403054 -0.056914974004 0.35757791996
          0.52280342579 0.11802048981 -0.12969905138 -0.15057423711 0.4235791266 -0.96737205982
          0.50668925047 0.15625235438 -0.07484164089 -0.31415548921 0.43635597825 0.25767859817
          -0.13271123171 -0.11502464116 0.12068300694 0.46497866511 0.59169536829 -0.051307376474
          -0.4234175384 -0.26687380672 -0.16902501881 0.14131936431 0.36955398321 -0.35139122605
          0.25879445672 -0.043559987098 -0.31497615576 0.71016591787 0.8409537077 0.61361050606
          -0.35202151537 0.51297712326 0.23936589062 -0.25527632236 -0.49362757802 -0.0035780870821
          0.12030304968 -0.55474847555 -0.32797342539 0.80328041315 -0.51529365778 -0.29777163267
          0.44571137428 -0.58342438936 0.39675450325 0.28067785501 -0.033825539052 -0.60060983896
          0.14083620906 1.1142830849 -0.50654441118 -0.27935412526 0.53544473648 -0.65547174215
          -0.62125575542 -0.74004691839 -0.66503286362 -0.06542865932 1.1411046982 0.70439749956
          -0.70503753424 -0.54118198156 -0.30333581567 -0.82847619057 -0.70501327515 0.86946636438
          -0.88449883461 -0.51188194752 0.27956953645 0.14579510689 0.45003536344 -1.0003528595
          -0.058243341744 1.0669833422 -0.69718551636 -0.33137628436 0.52825582027 -0.96094954014
          -0.86724483967 -1.0717046261 -0.52400040627 -1.1333353519 0.73339861631 -0.93274730444
          -0.75955539942 -1.170492053 -1.1511551142 0.8683552146 0.48794978857 -0.96976530552
          -0.53699833155 -0.381703794 0.25730380416 0.15816037357 -0.72465950251 -1.2824137211
          -0.07918625325 0.41708809137 -1.2123730183 -1.2282819748 -0.94766795635 -1.4651287794
          -0.54579281807 -0.74568241835 0.72967690229 -1.2249611616 -0.34088841081 -1.4767904282
          -1.5647391081 0.262812078 -0.97473913431 -1.6905465126 -1.3216328621 -0.17283675075
          0.31668719649 -0.73165202141 -0.56453925371 -1.65061903 -0.95762515068 0.065336085856
          -1.665668726 0.32082691789 -1.641620636 -1.8156080246 -0.74817323685 -0.96122348309
          -1.8021998405 -0.45634880662 0.1501134932 0.34446209669 -1.589795351 -2.1614189148
          -2.0460264683 -1.3257900476 -2.0792946815 0.44500592351 -2.1177186966 -0.9656059742
          -1.4292840958 -0.81647372246 -1.2434791327 -0.37291279435 -2.1023898125 -0.0096502723172
          -2.1598343849 -2.1694316864 -1.014336586 0.053291454911 -2.4563462734 -0.65917181969
          -1.2875314951 0.36214697361 -2.5030331612 -2.5175905228 -1.5009518862 -1.9613478184
          -2.5504698753 -1.2207592726 -0.95104175806 -2.5732519627 -0.3531011939 -1.6360486746
          -2.6075241566 -0.14880442619 -2.5799567699 -1.849814415 0.0018985128263 -2.4936454296
          -2.7329452038 -2.3366420269 -3.0258374214 -0.79044300318 -2.7897982597 -1.341106534
          -1.7025742531 -2.8702077866 -2.0987319946 -2.219263792 -2.8947863579 -1.580804348
          -1.2066828012 -0.37654533982 -2.8549780846 -0.66886466742 -2.7323055267 -0.029505157843
          -2.1850841045 -2.7256586552 -2.7427990437 -2.3410110474 -2.8621985912 -3.0299563408
          -2.3927056789 -2.5900220871 -3.0665917397 -1.1641787291 -2.1275818348 -1.6629738808
          -0.92629474401 -3.0768239498 -2.5348925591 -2.5210680962 -0.8621763587 -3.0194523335
          -0.49228060246 -2.0743567944 -2.9422907829 -1.5074281693 -2.9617791176 -2.6098675728
          -2.869743824 -3.0383629799 -3.1555614471 -2.6171953678 -2.8127205372 -3.167165041
          -2.8000905514 -3.1523387432 -2.7011520863 -1.4048076868 -1.125885129 -2.5677669048
          -2.098749876 -3.0723757744 -0.92164051533 -2.8982372284 -3.0198469162 -2.7300617695
          -2.5276532173 -2.9859755039 -2.9234557152 -3.1560623646 -2.8089754581 -1.8414522409
          -3.1856749058 -2.8476221561 -2.9229738712 -3.157823801 -2.8718082905 -1.3999686241
          -3.0952658653 -1.723782897 -1.1610943079 -2.4154040813 -2.9752793312 -2.8243198395
          -2.9635984898 -2.9159638882 -3.030567646 -2.8662173748 -3.0518584251 -2.9889538288
          -3.1499056816 -2.9754912853 -2.8732550144 -2.9947617054 -3.1494767666 -3.2120842934
          -2.1402044296 -2.9580767155 -1.8545794487 -2.956548214 -3.1109793186 -3.2236011028
          -1.4859372377 -3.0907301903 -3.0221061707 -2.68907094 -3.1940274239 -2.936362505
          -3.1401035786 -3.0538115501 -3.1105291843 -3.0574638844 -2.9938864708 -3.0673611164
          -3.1397197247 -3.2546086311 -3.1291120052 -3.2748625278 -2.3387756348 -1.8849589825
          -3.0029988289 -3.2408080101 -2.5554623604 -3.1807799339 -3.0483679771 -3.1534314156
          -3.3881840706 -3.054153204 -2.8784761429 -3.0629646778 -3.3120369911 -3.1229710579
          -3.2601442337 -2.8220427036 -3.1346514225 -2.3219144344 -3.0370957851 -3.4071929455
          -3.1491925716 -3.2423050404 -3.4250593185 -3.253644228 -2.9817330837 -3.0905783176
          -3.3158867359 -3.236956358 -3.2310919762 -3.2140805721 -3.1701319218 -3.0961396694
          -3.4337644577 -3.5651834011 -3.1530687809 -2.989818573 -2.793243885 -3.2945890427
          -3.3183100224 -3.1653921604 -3.1323754787 -3.5915715694 -3.2762234211 -3.6055135727
          -3.3178937435 -3.2424783707 -3.5547606945 -3.1387262344 -3.423224926 -3.2953145504
          -3.2095594406 -3.4454650879 -3.7973608971 -3.2572963238 -3.4327523708 -3.7124626637
          -3.1129024029 -3.5675032139 -3.1892163754 -3.4318065643 -3.2667560577 -3.1856718063
          -3.8620736599 -3.4300653934 -3.8623330593 -3.2357037067 -3.8158431053 -3.6702198982
          -3.3986990452 -3.6474971771 -3.2584826946 -3.6157670021 -3.2407901287 -3.0378336906
          -4.092236042 -3.2661435604 -4.0490927696 -3.6031291485 -3.0488388538 -3.4285404682
          -3.960490942 -3.5759649277 -4.1733264923 -4.2015008926 -3.5849866867 -3.4132843018
          -3.9954595566 -3.3090350628 -3.5713963509 -4.2754721642 -3.9069437981 -3.1546700001
          -3.3329274654 -3.3227665424 -3.1606061459 -3.7976293564 -4.3695950508 -4.479321003
          -3.4287509918 -3.5841090679 -3.7830638885 -3.7749812603 -4.5694794655 -3.7620856762
          -4.3905448914 -4.7282924652 -3.6085977554 -4.5664830208 -4.3624920845 -3.329887867
          -3.2204432487 -3.4531331062 -3.813857317 -3.4837737083 -4.1646108627 -4.6005077362
          -3.5867245197 -4.9386491776 -4.0817341805 -3.8408198357 -4.007525444 -3.7370903492
          -5.0765919685 -4.71966362 -4.9241900444 -4.000477314 -4.5200500488 -3.5900440216
          -3.3585560322 -3.5658516884 -3.9244763851 -4.6826076508 -4.0902996063 -3.7783088684
          -4.3978705406 -4.6556825638 -4.9904270172 -4.248705864 -3.99664855 -4.2549791336
          -5.3207325935 -5.1957182884 -4.1774673462 -3.8286361694 -3.6590154171 -5.0345482826
          -4.2246317863 -4.5203213692 -4.6998000145 -3.8901591301 -4.7702240944 -4.278151989
          -4.5220365524 -4.4787797928 -4.5120720863 -4.514321804 -4.7032980919 -4.6688480377
          -4.9691381454 -4.2210688591 -4.3197417259 -4.5299258232 -4.9313082695 -4.0918684006
          -3.9250643253 -4.7881889343 -4.8407382965 -4.2798542976 -4.288131237 -4.1995134354
          -4.254152298 -4.4386663437 -4.6588191986 -4.5300569534 -5.1087522507 -4.090192318
          -4.1128153801 -4.3574185371 -4.8320260048 -4.2988977432 -4.0751347542 -5.2293343544
          -4.4083452225 -4.3197431564 -4.5645136833 -4.2087855339 -4.3823885918 -3.9575922489
          -5.0826177597 -4.9527101517 -4.3943099976 -3.9560523033 -3.6595945358 -4.5579891205
          -3.5808880329 -5.2312684059 -3.5492947102 -3.7195308208 -4.3944296837 -3.574557066
          -4.7434668541 -5.2141828537 -4.6346082687 -3.848729372 -3.8169219494 -4.7792201042
          -4.7859568596 -3.6151726246 -3.7799236774 -3.3772726059 -4.0643620491 -4.8135800362
          -3.5077381134 -3.2384107113 -3.1487622261 -4.310292244 -3.237685442 -3.4254975319
          -4.5568227768 -4.8559088707 -4.2415060997 -3.4441034794 -4.671377182 -3.6526544094
          -4.5608839989 -3.3165147305 -3.400793314 -3.9871292114 -3.8716979027 -3.3461718559
          -3.2909724712 -3.3027458191 -4.0612001419 -3.3397674561 -3.6983370781 -4.535905838
          -3.4637904167 -3.4559893608 -4.4566502571 -4.2663140297 -3.5914549828 -3.1615462303
          -3.46986866 -4.0669584274 -3.2838401794 -3.3272464275 -3.174164772 -3.469858408
          -3.3679072857 -3.3536233902 -2.9462826252 -3.5963253975 -3.5772430897 -3.5886416435
          -3.3672301769 -3.5888564587 -4.2715358734 -3.6052350998 -3.3666980267 -4.060904026
          -4.037797451 -2.8285953999 -3.2663211823 -3.6062390804 -4.3428621292 -3.2186701298
          -3.8384757042 -3.3951854706 -3.0221230984 -3.5810465813 -3.1445393562 -3.6770627499
          -3.6857609749 -2.4774544239 -3.7403194904 -3.7778539658 -3.8934700489 -3.8029329777
          -3.6816110611 -3.4338128567 -3.0799634457 -3.2237401009 -3.1965408325 -4.1324310303
          -3.3623607159 -3.7160544395 -3.3152160645 -6.8342103958 -5.178047657 -4.3236174583
          0.45886769891 -3.6220965385 -3.2979180813 -3.6631467342 -3.7765324116 -3.8291614056
          -4.0312047005 -3.5381581783 -3.7753112316 1.0763792992 -2.8949086666 -3.3944833279
          -2.6688597202 -4.9743785858 -3.5894331932 -3.3447799683 -8.0419006348 -9.7579298019
          -6.7639489174 -3.5501720905 -0.74145126343 -4.0714559555 7.0827760696 -3.5649778843
          -3.3654294014 -3.1799550056 -0.56668823957 -3.4479374886 -9.5960407257 -3.766143322
          -3.5785927773 -7.970846653 -3.7328722477 -2.6230356693 -3.4345986843 -3.5687835217
          -3.7173409462 -2.8540389538 -3.7516453266 -3.6727557182 -3.8021211624 -3.5725035667
          -3.7709105015 -3.6649415493 -3.6187226772
        </DataArray>
        <DataArray type="Float32" Name="VELOCITY" NumberOfComponents="3" ComponentName0="X-VELOCITY" ComponentName1="Y-VELOCITY" ComponentName2="Z-VELOCITY" format="ascii" RangeMin="0" RangeMax="8.1498883973">
          0 0 0 0 0 0
          3.880408287 0.051272131503 0 5.2729330063 0.20294778049 0
          3.8669719696 0.17247021198 0 5.7193584442 0.26629605889 0
          0 0 0 5.4844760895 0.07382363826 0
          4.3485293388 0.073005445302 0 5.4004487991 0.072211273015 0
          0 0 0 5.4598345757 0.079256013036 0
          5.5008707047 0.08703070879 0 5.4562249184 0.10043346137 0
          4.3396348953 0.035250555724 0 5.450275898 0.048368103802 0
          0 0 0 5.4164514542 0.094913065434 0
          5.2427563667 0.026245327666 0 5.3557152748 0.080325916409 0
          5.4640893936 0.076415531337 0 4.2848386765 -0.023032143712 0
          5.3128566742 0.068970553577 0 0 0 0
          5.2913517952 0.06144560501 0 5.5731329918 0.038227140903 0
          5.2411136627 0.043244868517 0 5.2719106674 -0.025058945641 0
          5.2379827499 0.041629888117 0 4.3233380318 -0.02084735781 0
          5.2577939034 0.044551927596 0 5.2379484177 0.029429811984 0
          5.2899627686 0.038063898683 0 0 0 0
          5.347178936 0.038892928511 0 5.2495989799 0.033249679953 0
          5.2604756355 0.041542518884 0 5.6738567352 0.016139766201 0
          5.2909445763 0.043046094477 0 5.288749218 -0.011385136284 0
          4.3077869415 -0.0063781775534 0 5.3186392784 0.043419074267 0
          0 0 0 5.3396325111 0.040394157171 0
          5.2302393913 0.032389964908 0 5.2882184982 0.030766868964 0
          5.2540111542 0.030538190156 0 5.7012562752 0.021520266309 0
          5.2810349464 0.030773576349 0 5.3061752319 0.033776719123 0
          5.340051651 -0.011538771912 0 5.3230743408 0.034584853798 0
          5.3339552879 0.034520763904 0 4.2608280182 0.022741481662 0
          5.2944555283 0.026357427239 0 5.7242236137 0.011764730327 0
          5.3167929649 0.02814316377 0 0 0 0
          5.3432073593 0.030751520768 0 5.2555375099 0.016714181751 0
          5.2713370323 0.02177676931 0 5.3252701759 0.029483286664 0
          5.2287125587 0.014231047593 0 5.2869963646 -0.011547123082 0
          5.3313612938 0.028887100518 0 3.9475948811 -0.0017057174118 0
          5.3363895416 0.027143007144 0 5.3197593689 0.024890614673 0
          5.2354593277 0.01384565793 0 5.3118281364 0.023736927658 0
          5.3196001053 0.024009475484 0 5.3176980019 0.024456476793 0
          0 0 0 5.3392891884 0.023735349998 0
          5.7444324493 0.025859259069 0 5.2998223305 0.022014344111 0
          5.2951273918 -0.014813982882 0 5.2332811356 0.014298836701 0
          5.3227553368 0.021095264703 0 5.2774095535 0.018614640459 0
          4.0142035484 -0.013383519836 0 5.3261823654 0.017925949767 0
          5.3101329803 0.018893647939 0 5.3108940125 0.017816746607 0
          5.3061485291 0.019724028185 0 5.2467365265 0.014775330201 0
          5.3092927933 0.016099907458 0 0 0 0
          5.3300814629 0.015019809827 0 5.7765698433 0.0064092264511 0
          5.3158197403 0.016389142722 0 5.3045220375 0.012800308876 0
          5.3247623444 0.0035706306808 0 5.2282476425 0.011729804799 0
          5.287296772 0.01673027873 0 5.2896466255 0.0078485738486 0
          4.0014481544 -0.012257424183 0 5.3249812126 0.012689084746 0
          5.3197264671 0.013451344334 0 5.3132534027 0.014699789695 0
          5.3088259697 0.014900015667 0 5.3054461479 0.015020214953 0
          5.301015377 0.017252488062 0 5.783718586 0.011115475558 0
          5.264128685 0.00095894304104 0 5.3077168465 0.012708256021 0
          0 0 0 5.3278636932 0.0097039891407 0
          5.3090796471 0.010468015447 0 5.3586850166 -0.0083625204861 0
          5.2175827026 -0.01599749364 0 5.3148784637 0.012512989342 0
          5.3078656197 0.0051665510982 0 4.0139055252 -0.042687032372 0
          5.3215155602 0.0069740638137 0 5.2994022369 0.014626752585 0
          5.3018522263 0.011631933972 0 5.3115148544 0.012460057624 0
          5.3130135536 0.012530682608 0 5.1579995155 0.005918183364 0
          5.2960205078 -1.8576398361e-005 0 5.7831082344 0.058797042817 0
          5.3038625717 0.0077151875012 0 5.3153996468 0.0079167736694 0
          0 0 0 5.3285112381 0.0027881446294 0
          5.4368872643 0.0028582788073 0 5.3037204742 0.004300236702 0
          5.3066072464 0.010320941918 0 4.3769307137 0.014156806283 0
          5.2657184601 -0.014373854734 0 5.3250727654 0.00077258312376 0
          5.3021149635 0.013647337444 0 5.3077969551 -0.0016065910459 0
          5.3142595291 0.011064280756 0 5.2086548805 -0.025614829734 0
          5.3035626411 0.01126470603 0 5.3089370728 0.0062266155146 0
          5.3059678078 0.012291784398 0 5.3085207939 0.0064369542524 0
          0 0 0 5.3446555138 -0.00839282386 0
          5.1952366829 -0.035594344139 0 5.842233181 0.080248653889 0
          5.3228497505 -0.0015946431085 0 5.3010306358 0.0094028785825 0
          5.3065428734 0.0015185874654 0 5.3085384369 -0.0080098025501 0
          5.3042488098 0.012197121046 0 5.3075628281 0.0066301175393 0
          5.314661026 0.011460597627 0 4.2781424522 -0.064202785492 0
          5.3422875404 -0.0097033102065 0 5.3068013191 -0.011995340697 0
          5.3253502846 -0.0013690426713 0 5.3042817116 0.012440302409 0
          5.2999958992 0.0093273585662 0 5.0991282463 -0.067206673324 0
          5.3148231506 0.004960689228 0 0 0 0
          5.3408489227 -0.013433942571 0 5.2950811386 0.013494877145 0
          5.31127882 -0.0030425903387 0 5.3364443779 -0.0085094217211 0
          5.3102693558 -0.01598271355 0 5.8036146164 0.18439465761 0
          5.2936296463 -0.028933184221 0 4.0711932182 -0.022594630718 0
          5.3139519691 0.0085507584736 0 5.285671711 -0.040708493441 0
          5.3119988441 -0.015108275227 0 5.316344738 0.012317542918 0
          5.3199715614 -0.017539033666 0 5.3182015419 -0.0023946953006 0
          5.2805371284 -0.045273352414 0 5.3328762054 -0.00092482281616 0
          5.2163066864 -0.022613717243 0 5.308151722 0.01489508152 0
          5.2928833961 0.015367791057 0 0 0 0
          5.2754154205 -0.012147952802 0 5.2612161636 -0.011186352 0
          5.3162651062 0.0099095087498 0 5.3219528198 0.0057730581611 0
          5.3233456612 -0.0030556446873 0 5.7040987015 0.24433687329 0
          5.3299589157 -0.025029946119 0 5.2523722649 -0.012323875912 0
          5.3214664459 0.0017644916661 0 5.2267298698 -0.04046972841 0
          5.2586665154 -0.065220877528 0 5.2556724548 -0.019463116303 0
          5.3135485649 0.011259427294 0 5.2614712715 -0.032600287348 0
          5.3326377869 -0.016285480931 0 5.2370247841 0.0073855626397 0
          5.3210000992 0.012693638913 0 5.291490078 0.018744457513 0
          5.3246626854 -0.050715196878 0 5.2071728706 -0.067926116288 0
          5.3185634613 0.013044528663 0 5.248570919 0.010694773868 0
          5.3118977547 0.019171060994 0 0 0 0
          5.3371376991 -0.052473925054 0 4.7203364372 0.17419756949 0
          5.314666748 0.013058994897 0 5.2253212929 -0.097469449043 0
          5.3292956352 0.011580325663 0 5.2838053703 -0.031467560679 0
          5.342004776 -0.040065724403 0 5.2893629074 -0.021567441523 0
          5.330637455 0.0097502022982 0 5.3360438347 -0.002035156358 0
          5.2448563576 -0.018076959997 0 5.2454862595 0.0093051595613 0
          5.3088340759 -0.085988603532 0 5.182097435 -0.08353754878 0
          5.3809437752 -0.055303096771 0 5.3133487701 0.010916119441 0
          5.3316407204 0.013799392618 0 5.2846240997 0.027685267851 0
          5.3034648895 -0.0232156571 0 5.2521882057 0.019015755504 0
          5.2368221283 -0.0073448852636 0 5.3511095047 -0.019033871591 0
          5.1850652695 -0.12452583015 0 5.3207888603 0.017471143976 0
          5.3510541916 -0.074420899153 0 5.0974292755 0.070074774325 0
          5.4077010155 -0.031716581434 0 0 0 0
          5.2078232765 0.013721366413 0 5.3430094719 0.012801360339 0
          5.3343396187 0.01514685899 0 5.2085375786 -0.017347736284 0
          5.2745137215 -0.12904906273 0 5.4462795258 -0.062412153929 0
          5.3158588409 0.028749290854 0 5.2624778748 0.018952187151 0
          5.1515412331 -0.096891723573 0 5.3706731796 -0.046470332891 0
          5.3563799858 0.0017116522649 0 5.132941246 -0.15538884699 0
          5.3476305008 -0.12110987306 0 5.2253751755 0.015632756054 0
          5.336605072 0.026562664658 0 4.7497801781 0.026652319357 0
          5.3335762024 0.0078749330714 0 5.4937214851 0.0097973961383 0
          5.4774713516 -0.029343001544 0 5.2775278091 0.018234545365 0
          5.2769584656 0.035974938422 0 5.2190299034 -0.18116827309 0
          5.211974144 0.022263702005 0 5.5396237373 0.00026977126254 0
          5.3786039352 -0.016517538577 0 5.3215417862 0.026155589148 0
          5.0903115273 -0.042018435895 0 5.3934268951 -0.091104522347 0
          5.356631279 0.026304598898 0 0 0 0
          5.7003974915 -0.2088265419 0 5.5769147873 0.014154321514 0
          5.557299614 -0.020686317235 0 5.1990070343 0.019992426038 0
          5.3264169693 -0.18524326384 0 5.3157935143 0.042660042644 0
          5.4440879822 -0.013040168211 0 5.2986593246 0.018002394587 0
          5.0650119781 -0.19979244471 0 5.0993099213 -0.13139998913 0
          5.1541838646 -0.22791022062 0 5.4095191956 -0.050769090652 0
          5.6006402969 0.02596389316 0 5.3858423233 0.017534039915 0
          5.351313591 0.0075206835754 0 4.6724705696 -0.031338237226 0
          5.3467960358 0.046288792044 0 5.4035315514 0.019893795252 0
          5.4123754501 -0.15403479338 0 5.3308529854 -0.13297532499 0
          5.2658205032 0.043471414596 0 5.2103443146 0.031710658222 0
          5.4397072792 0.056903190911 0 5.3149938583 0.037777028978 0
          5.624121666 0.02958304435 0 5.2734174728 -0.25911694765 0
          5.4222102165 -0.0017713450361 0 5.445898056 -0.10420837998 0
          5.3771119118 0.051699813455 0 4.3626818657 -0.0025556001347 0
          0 0 0 5.0431165695 -0.10357677937 0
          5.482635498 0.056342840195 0 5.3120994568 0.064466483891 0
          4.0836544037 -0.16008250415 0 5.6282167435 0.01321121119 0
          4.4102330208 -0.025528388098 0 5.1321296692 -0.32589828968 0
          4.9806437492 -0.27816694975 0 5.2595477104 0.032772447914 0
          5.4693193436 -0.039863888174 0 4.4581332207 0.020503630862 0
          5.4227352142 0.048797406256 0 5.2247681618 0.022336998954 0
          5.5159397125 0.048921938986 0 5.3670682907 -0.00068098475458 0
          5.4344091415 -0.24316576123 0 4.6314668655 -0.043814908713 0
          5.2603287697 0.053735274822 0 5.3520445824 0.077797904611 0
          4.357963562 0.030211752281 0 5.4896612167 -0.17663581669 0
          4.9724617004 -0.21835115552 0 5.6306428909 0.025207137689 0
          4.2792959213 0.042379632592 0 5.2964472771 0.055347189307 0
          5.3686814308 -0.32814794779 0 5.509970665 0.052853494883 0
          5.484161377 0.032871667296 0 5.5311040878 -0.10524431616 0
          5.3967323303 0.094220884144 0 0 0 0
          0 0 0 0 0 0
          0 0 0 4.9624376297 -0.15694247186 0
          4.2035069466 0.038124684244 0 0 0 0
          5.2990050316 0.095245070755 0 5.5826230049 0.023181267083 0
          5.3082075119 0.028598157689 0 5.0259928703 -0.41077363491 0
          5.6633543968 -0.033277567476 0 5.1902155876 0.040023557842 0
          4.8855686188 -0.35805749893 0 0 0 0
          5.3773298264 -0.0008800108335 0 5.5616540909 -0.012721344829 0
          5.5716018677 -0.20706799626 0 4.1114225388 0.033217627555 0
          5.4650464058 0.10341037065 0 4.4661140442 -0.057329557836 0
          4.8629670143 -0.26975634694 0 5.2484531403 0.059045106173 0
          5.3454928398 0.12297412753 0 0 0 0
          5.3092741966 -0.43020817637 0 5.5456738472 -0.33436572552 0
          0 0 0 5.2709078789 0.083642229438 0
          3.8615503311 0.01891978085 0 0 0 0
          5.4053349495 0.15361614525 0 5.5613360405 0.094467222691 0
          5.5165367126 0.060131400824 0 5.6612334251 -0.084414541721 0
          4.8712100983 -0.19220733643 0 5.4480252266 -0.043062884361 0
          0 0 0 5.2747488022 0.13627129793 0
          5.3637347221 -0.018254997209 0 5.1201105118 0.083607643843 0
          3.9404141903 0.053587555885 0 4.7696504593 -0.42337712646 0
          5.8876566887 0.032071262598 0 4.319437027 -0.082958556712 0
          5.6714820862 0.061000172049 0 0 0 0
          5.495361805 0.18487273157 0 5.733830452 -0.19681484997 0
          5.2314023972 0.078673578799 0 5.2976493835 -0.52099394798 0
          4.6987929344 -0.34056273103 0 5.3240880966 0.18590646982 0
          4.898273468 -0.52973204851 0 5.5871515274 -0.4329417944 0
          5.232863903 0.11426509172 0 0 0 0
          5.6244750023 0.17306320369 0 3.2563328743 0.029919898137 0
          0 0 0 5.4062662125 0.23723138869 0
          4.7565875053 -0.2212715894 0 5.8124027252 -0.017028879374 0
          5.9474153519 -0.082468055189 0 5.1728081703 0.06970756501 0
          5.2331156731 0.18416817486 0 5.7957568169 -0.29970553517 0
          4.696451664 -0.50206291676 0 5.3325185776 -0.0062281708233 0
          3.8925125599 -0.0053106034175 0 0 0 0
          5.2529172897 -0.56027811766 0 4.1910481453 -0.075201310217 0
          5.2734222412 0.24197226763 0 5.7809166908 0.15440402925 0
          5.520070076 0.28260612488 0 5.2117133141 0.088733397424 0