<?xml version="1.0"?>
<VTKFile type="PolyData" version="0.1" byte_order="LittleEndian" compressor="vtkZLibDataCompressor">
  <PolyData>
    <Piece NumberOfPoints="1041" NumberOfVerts="0" NumberOfLines="0" NumberOfStrips="0" NumberOfPolys="1940">
      <PointData>
        <DataArray type="Float32" Name="PRESSURE" format="ascii" RangeMin="-9.683801651" RangeMax="1.7722451687">
          0 0.25889697671 0 0.08826123178 0.19235415757 0
          0.055118951946 0.0282834135 0.15485908091 0.041390411556 0.12519466877 0
          -0.0044570676982 -0.017550678924 0.028504099697 -0.078307785094 -0.028480179608 0
          -0.18987163901 -0.096773087978 -0.11338295788 -0.21825797856 -0.059472195804 -0.30452948809
          0 -0.28274852037 -0.15704514086 -0.37388592958 -0.082709521055 -0.45951977372
          -0.041929323226 -0.30441612005 0 -0.53422778845 -0.48022741079 -0.27376151085
          -0.19422125816 -0.55490612984 -0.089327223599 -0.60917705297 -0.69605082273 -0.050489380956
          -0.74882239103 0 -0.61055153608 -0.72588288784 -0.50551247597 -0.74140369892
          -0.36026129127 -0.20674236119 -0.76004713774 -0.11451085657 -0.044440891594 -0.8212723732
          -0.52957928181 -0.9102165699 -0.36067312956 -0.79910898209 0 -0.88924455643
          -0.74594247341 -0.23991496861 -0.90539801121 -0.94123655558 -0.12416367978 -0.9433748126
          -0.058360807598 -0.53597849607 -1.0833832026 -0.76262551546 -0.25348064303 -0.38234826922
          -0.99141591787 0 -1.0603915453 -0.96874016523 -1.0356558561 -1.0879912376
          -0.14012442529 -1.0815070868 -1.0888110399 -0.07705873996 -0.39991122484 -0.78869247437
          -0.55580705404 -1.1824673414 -0.98597985506 -1.0912723541 0 -1.1433922052
          -0.26566964388 -1.1334108114 -1.1371109486 -1.1844860315 -1.1707247496 -1.1927987337
          -1.1730327606 -0.02716148831 -0.14093656838 -0.37684497237 -0.4967212081 -0.92152935266
          -0.72921770811 -1.2074579 -1.2600492239 -1.0972237587 -1.1729277372 0
          -1.1999758482 -1.2263137102 -1.1981922388 -0.2644726336 -1.2247663736 -1.3207719326
          -0.087429687381 -0.92067116499 -1.0629318953 -0.74055969715 -0.51858699322 -1.184787035
          -1.2553384304 -1.2668203115 -1.1455150843 -0.13684765995 -1.3554860353 0
          -1.2991594076 -1.1698111296 -0.41072639823 -1.4205901623 -1.2069303989 -0.06923969835
          -1.0517983437 -1.1919401884 -0.95732533932 -1.1480894089 -1.0749986172 -0.29361474514
          -0.83028328419 -1.1466002464 -1.350458622 0 -1.2272202969 -1.3289886713
          -0.12900321186 -0.64548319578 -1.2401118279 -1.1712833643 -1.0991340876 -0.40779078007
          -1.1581805944 -1.5557595491 -0.045586053282 -1.1389746666 -0.26132518053 -1.1488176584
          -0.89594769478 -1.302614212 -1.1461005211 -1.5491440296 0 -1.1205348969
          -1.2176525593 -0.10612911731 -1.2266465425 -1.395422101 -1.2170885801 -1.8714444637
          -0.73974561691 -1.461225152 -0.047881804407 -1.204033494 -1.2412760258 -0.20533457398
          -1.2178045511 -0.43142136931 -1.3842507601 -1.2040737867 -1.2901294231 -1.6397587061
          0 -1.3184831142 -1.099085331 -1.2231730223 -1.2713503838 -1.6154159307
          -1.2963865995 -0.12210723758 -0.67983961105 -1.5848921537 -1.3070796728 -0.061880793422
          -1.2640175819 -1.5603885651 -1.3316015005 -0.29267799854 -0.94862937927 -1.2998290062
          -1.3498101234 -1.5269922018 -1.2431653738 -0.55577862263 -1.2703136206 -1.7373700142
          0 -1.6521838903 -1.3469070196 -1.4901075363 -1.1743699312 -1.7670173645
          -1.4002788067 -0.12020252645 -1.3248263597 -1.3406995535 -1.7495003939 -0.78084927797
          -1.5014517307 -1.7350891829 -0.038841988891 -1.3158775568 -1.300522089 -1.2885026932
          -0.18846972287 -1.0271735191 -0.40253350139 -1.4046176672 -1.725695014 -1.2528859377
          -1.5396469831 -1.7776054144 0 -1.6818630695 -0.6314855814 -1.3652944565
          -1.3471105099 -1.8770266771 -1.7082619667 -0.030097955838 -1.2982041836 -1.2100070715
          -1.9221097231 -1.5264616013 -1.4344915152 -1.9292526245 -1.7336082458 -0.8922457099
          -1.3469971418 -1.8124700785 -1.2832138538 -0.32956314087 -0.026603680104 -1.3142690659
          -1.2535660267 -1.9389511347 -1.0549762249 -0.49403432012 -1.5327597857 -1.2644144297
          -1.960542202 -1.7041703463 -1.4346795082 -1.855940938 0 -0.67379456758
          -0.1439627111 -1.2023993731 -1.9665720463 -1.3421751261 -0.052301254123 -1.3645609617
          -2.1671221256 -2.1484978199 -2.1217689514 -1.677696228 -0.88157230616 -1.5402767658
          -1.261633873 -2.0395336151 -1.4386591911 -0.29609170556 -1.9236423969 0.054097980261
          -1.2666540146 -1.316042304 -0.52379655838 -1.3108925819 -1.0696729422 -2.1905260086
          -1.6749663353 -1.8620817661 -1.5702075958 0 -2.0643620491 -2.1577792168
          -0.73348200321 -1.4181735516 0.11873751879 -1.1673600674 0.043590009212 -2.3123185635
          -2.3440749645 -1.3609883785 -1.8289000988 -0.13216376305 -1.7112923861 -1.3337017298
          -0.91184848547 -1.2623192072 -2.1662037373 -2.1971940994 -1.3146700859 -1.5890444517
          -0.38752153516 -2.1004412174 -2.3110759258 -1.2749665976 -0.60923111439 -1.4039112329
          -2.2654852867 -1.1020522118 -1.8553955555 -2.031037569 -1.7591531277 0
          -2.170283556 0.12930341065 0.031951181591 -2.2577974796 -0.82848131657 0.019849935547
          -1.5861184597 -1.1917557716 -1.3383572102 -2.4233751297 -1.3187198639 -1.3859615326
          -2.4232158661 -0.19253711402 -1.368118763 -1.9993724823 -2.1596183777 -0.96431046724
          -1.9119868279 -2.26049757 -2.3595814705 -1.4190320969 -1.799456954 -0.43251916766
          -2.3546614647 -2.2780482769 -0.66236180067 -1.5920593739 -1.1672667265 -2.2175388336
          -1.9840043783 -2.0426065922 -1.3414210081 -2.0952277184 -2.2750034332 -1.347708106
          -0.85611432791 -1.8152937889 -1.461710453 -1.5097742081 -1.2315405607 -2.3812589645
          -1.4599419832 -2.2649970055 -2.088121891 -1.0017001629 -2.1469650269 -2.1549797058
          -1.6131776571 -2.3256993294 -2.322530508 -2.0412018299 -2.3189747334 -2.2589988708
          -1.824079752 -1.1844602823 -2.1518440247 -1.3254121542 -2.2140572071 -2.173137188
          -2.2274303436 -2.1054224968 -1.4854433537 -1.5960938931 -2.0335888863 -2.1620748043
          -2.2820472717 -1.6588051319 -1.478680253 -1.1487759352 -2.1858308315 -2.2097373009
          -2.1959242821 -2.1488642693 -2.2468457222 -1.8403859138 -2.064057827 -2.1702506542
          -2.2086381912 -1.5737531185 -1.431902647 -2.0407288074 -2.1511409283 -2.0846858025
          -2.1431090832 -2.2294814587 -2.1330888271 -1.574075222 -2.0736393929 -1.6748222113
          -2.3244011402 -2.2637004852 -1.7263219357 -1.5092047453 -2.004196167 -1.8599991798
          -2.0728869438 -2.1068806648 -2.1114013195 -2.1386699677 -2.0851247311 -2.3102624416
          -2.0360677242 -1.9747556448 -1.9495023489 -1.5540018082 -1.7012207508 -2.0125641823
          -2.2401840687 -2.0172326565 -1.941698432 -1.9553043842 -1.8331813812 -2.2226748466
          -2.00014925 -1.9907979965 -2.0156934261 -2.3563787937 -1.978212595 -1.9079662561
          -1.7693427801 -1.8427723646 -1.9760543108 -2.0824017525 -2.3719513416 -1.9103956223
          -2.271007061 -1.8992692232 -1.7891024351 -1.7397905588 -1.8436626196 -2.1653251648
          -1.8796497583 -2.2916343212 -1.7513840199 -1.9078507423 -1.7860081196 -1.934161067
          -2.1297633648 -1.6862807274 -1.7827262878 -2.0062019825 -1.6793049574 -1.7895987034
          -2.3471033573 -1.8627886772 -1.8400939703 -2.2903130054 -1.9571285248 -1.782554388
          -2.1412034035 -1.8143005371 -1.6930851936 -1.7783120871 -2.2781209946 -1.624597311
          -1.8295556307 -1.6671435833 -1.758587718 -1.9669392109 -1.7109053135 -2.1297307014
          -1.5694986582 -1.7090759277 -1.7587542534 -1.7829954624 -1.6088944674 -2.0485284328
          -1.6550090313 -1.6979959011 -2.2273340225 -2.1280241013 -2.2402915955 -1.5487595797
          -1.9785832167 -1.8896089792 -1.6317430735 -1.7267986536 -2.1762595177 -1.4840501547
          -1.7340471745 -1.7033525705 -1.6698268652 -1.5380607843 -2.1285007 -1.5591571331
          -1.7261308432 -1.7430095673 -1.6182411909 -2.0306799412 -2.1431751251 -1.6428037882
          -1.6201115847 -1.6834316254 -2.155184269 -2.0614683628 -1.6559802294 -1.5339030027
          -1.9473122358 -2.1775641441 -1.7494511604 -1.5670514107 -1.6619977951 -1.6823621988
          -1.5615128279 -1.6158180237 -2.0837433338 -1.6740550995 -1.7460224628 -1.6300654411
          -1.7878851891 -2.0743653774 -1.7004413605 -1.656472683 -1.8425952196 -1.8545759916
          -2.1486666203 -1.5165396929 -1.5353868008 -1.7344020605 -1.6605893373 -1.973960638
          -1.8231675625 -2.1560881138 -1.8429247141 -1.7856301069 -1.4402731657 -1.5947307348
          -1.76895082 -1.6341044903 -1.9629046917 -2.0576848984 -1.9089525938 -1.8152323961
          -1.897716403 -1.8936313391 -1.9189763069 -2.0835859776 -2.0916538239 -1.4933763742
          -1.8444708586 -1.4220759869 -1.746467948 -1.6998556852 -1.9097380638 -1.8284779787
          -1.8982152939 -2.2346804142 -1.4163432121 -1.9117504358 -2.0234463215 -1.5496263504
          -1.6779016256 -1.9296045303 -2.1033027172 -2.0468294621 -1.9009021521 -2.1571555138
          -2.2914941311 -1.550792098 -1.4300864935 -2.4302885532 -1.6909474134 -1.9291522503
          -2.08893466 -1.7965881824 -2.4689538479 -2.0648033619 -1.8671182394 -1.995708704
          -2.1476483345 -2.3175909519 -2.2359964848 -1.522746563 -2.2251546383 -1.5425701141
          -1.8846068382 -2.4019713402 -2.2575769424 -2.2450299263 -2.540800333 -1.7210197449
          -1.4853292704 -1.7063348293 -2.5727317333 -1.6101542711 -2.0684478283 -1.7213168144
          -2.2657814026 -2.4905657768 -2.0372653008 -2.3153247833 -2.1640062332 -2.2748363018
          -2.3840298653 -2.3920717239 -2.410315752 -1.5648354292 -2.117190361 -1.6399636269
          -1.5843518972 -2.5310735703 -2.4802808762 -2.3488571644 -1.6619970798 -2.5461266041
          -1.6567600965 -1.9585043192 -2.5255761147 -1.6428745985 -2.1332173347 -2.4188635349
          -2.0692117214 -2.1786620617 -2.2741820812 -2.4937779903 -2.4197487831 -2.3281624317
          -2.5731680393 -2.4338357449 -2.3467714787 -1.640126586 -1.6749013662 -2.3487238884
          -1.8489954472 -2.4276647568 -1.6375925541 -2.6383988857 -2.4350845814 -2.3611359596
          -2.1872856617 -2.103729248 -2.37327981 -2.198135376 -2.0225744247 -1.8257770538
          -2.2398080826 -2.4650449753 -2.6072649956 -2.2893042564 -2.3406074047 -1.7305660248
          -2.2981917858 -1.7819207907 -1.6676424742 -2.0473356247 -2.5663189888 -2.3053772449
          -2.0776205063 -2.4916687012 -2.2865440845 -2.3389422894 -2.6002147198 -2.2971036434
          -2.1475322247 -2.3159883022 -2.3415088654 -2.0674746037 -2.2353639603 -2.2093544006
          -1.9583643675 -2.4176528454 -1.8641518354 -2.3067979813 -2.5938334465 -2.1799120903
          -1.7533118725 -2.2004966736 -2.4487679005 -2.1853353977 -2.1872751713 -2.2806632519
          -2.4965963364 -2.2634279728 -2.4775958061 -2.2108905315 -2.3260273933 -2.3061304092
          -2.1458003521 -2.192429781 -2.3882164955 -2.1801142693 -2.0448791981 -1.8885546923
          -2.3245999813 -2.1462936401 -2.134885788 -2.4746928215 -2.2886252403 -2.2119050026
          -2.296415329 -2.3151161671 -2.2635626793 -2.2979888916 -2.2069816589 -2.2777266502
          -2.4297447205 -2.1970481873 -2.3343229294 -2.0586619377 -2.2498967648 -2.2973921299
          -2.3131608963 -2.1499242783 -2.2733693123 -2.3791851997 -2.2483837605 -2.271933794
          -2.1812627316 -2.1982829571 -2.2894585133 -2.3533608913 -2.3351256847 -2.2417752743
          -2.2976603508 -2.4296154976 -2.3159704208 -2.2535595894 -2.2140190601 -2.3867135048
          -2.333173275 -2.2438104153 -2.2413694859 -2.4549484253 -2.3881921768 -2.439013958
          -2.3872423172 -2.2961051464 -2.3764631748 -2.191463232 -2.3322262764 -2.3995778561
          -2.2127058506 -2.4168720245 -2.6351225376 -2.3374905586 -2.4570915699 -2.538077116
          -2.320925951 -2.4145057201 -2.2594690323 -2.4906029701 -2.3004646301 -2.1691117287
          -2.6912317276 -2.4926075935 -2.6870245934 -2.2236485481 -2.6231389046 -2.5322780609
          -2.4535236359 -2.5601568222 -2.2398991585 -2.5756013393 -2.1702744961 -2.2029066086
          -2.9113440514 -2.2214746475 -2.8461799622 -2.6054534912 -2.1735024452 -2.4386417866
          -2.7524163723 -2.5938370228 -2.9819462299 -3.0284149647 -2.6007592678 -2.3649480343
          -2.8253362179 -2.2158882618 -2.564658165 -3.0256779194 -2.7800815105 -2.2068088055
          -2.2375676632 -2.2352983952 -2.2130219936 -2.7528820038 -3.1899921894 -3.2471351624
          -2.3388371468 -2.5289878845 -2.7636873722 -2.7597761154 -3.3033044338 -2.7416849136
          -3.2577102184 -3.4613797665 -2.508061409 -3.3947138786 -3.1574521065 -2.3004984856
          -2.2307569981 -2.3232049942 -2.7523539066 -2.3816297054 -3.0337078571 -3.4320969582
          -2.451125145 -3.6950740814 -3.013821125 -2.7290263176 -2.9731571674 -2.5857560635
          -3.8346865177 -3.5754055977 -3.6890828609 -2.9577620029 -3.3925004005 -2.4764535427
          -2.3207449913 -2.4612987041 -2.7529625893 -3.4952611923 -3.0127074718 -2.6379578114
          -3.2900474072 -3.461448431 -3.7603502274 -3.1040871143 -2.7996039391 -3.2095716
          -4.1516728401 -4.0315747261 -3.1543285847 -2.6867325306 -2.5150666237 -3.8693461418
          -3.0132083893 -3.3446464539 -3.5522763729 -2.7648353577 -3.6658685207 -3.2186019421
          -3.3073771 -3.4282245636 -3.2482242584 -3.3897442818 -3.5392782688 -3.4322457314
          -3.9030573368 -3.2633872032 -3.1292414665 -3.3047361374 -3.8764121532 -2.9324738979
          -2.7645499706 -3.6007664204 -3.8078086376 -3.2973687649 -3.0612213612 -3.0649466515
          -3.05189538 -3.3410637379 -3.6831181049 -3.4879150391 -3.8801929951 -2.8494272232
          -2.7608261108 -3.4335973263 -3.7338876724 -3.2477235794 -3.0151703358 -3.9959559441
          -3.4344174862 -3.2027010918 -3.4098310471 -3.3646235466 -3.4293479919 -2.5715053082
          -3.9687263966 -3.7224719524 -3.4800927639 -3.1827802658 -2.2952549458 -3.5892908573
          -2.2589075565 -4.1101255417 -2.3083198071 -2.1871850491 -3.2552068233 -2.4699237347
          -3.7492954731 -4.0614128113 -3.4614744186 -3.2127897739 -2.8844730854 -3.6284251213
          -3.7671039104 -2.0580050945 -3.0136115551 -1.8280433416 -3.2440416813 -3.764316082
          -2.9915657043 -1.6555874348 -1.6175740957 -3.4251558781 -1.7830466032 -1.7460743189
          -3.4169399738 -3.6845114231 -3.2719495296 -2.1730351448 -3.4748904705 -3.0574982166
          -3.413446188 -2.5233671665 -1.7055824995 -2.9253184795 -3.0801529884 -1.58769238
          -2.8434596062 -1.526366353 -2.9256560802 -1.6122862101 -2.720197916 -3.3633544445
          -1.8411790133 -1.6595818996 -3.2082622051 -3.0725858212 -2.4658033848 -2.7551612854
          -2.0820817947 -2.8320229053 -2.7404286861 -2.3925764561 -2.7245595455 -1.6647343636
          -2.0800588131 -2.4239015579 -2.643889904 -1.6950125694 -1.7176471949 -1.6426600218
          -2.1103444099 -1.7402325869 -3.0362560749 -1.63415277 -1.993121624 -2.7059752941
          -2.0102646351 -2.6315276623 -2.937142849 -2.2397565842 -2.9783854485 -1.7483195066
          -3.4464795589 -2.5290515423 -3.3656747341 -1.7286456823 -1.5576115847 -2.2163164616
          -1.8043602705 -2.7775924206 -1.8032172918 -1.7095526457 -2.5107541084 -1.4294421673
          -2.1639666557 -1.8005515337 -3.4697346687 -0.7494301796 -1.5617349148 -1.6918460131
          -1.789257288 -3.3220813274 -1.6061906815 -5.5447001457 -6.0595641136 -2.9855697155
          -1.983011961 -1.758687973 -1.5222063065 -1.7887303829 -1.85120368 -1.7708239555
          -2.0392422676 -1.9847967625 -1.4140993357 -1.6275452375 -0.095349833369 -1.7249859571
          0.86681729555 -5.9024786949 -1.6310508251 -1.5756077766 -4.7545619011 -9.683801651
          -5.5020489693 -1.6130175591 -4.3446249962 -1.6583217382 1.7722451687 -1.6743683815
          -1.6717587709 -0.72161740065 -4.2121872902 -1.653382659 -9.5671796799 -1.3873974085
          -1.7242423296 -4.7133393288 -1.6882032156 0.8912627697 -1.6368260384 -1.7296766043
          -1.7904907465 -0.058722380549 -1.406394124 -1.8072849512 -1.752409935 -1.7306370735
          -1.854850769 -1.8017151356 -1.7661761045
        </DataArray>
        <DataArray type="Float32" Name="VELOCITY" NumberOfComponents="3" ComponentName0="X-VELOCITY" ComponentName1="Y-VELOCITY" ComponentName2="Z-VELOCITY" format="ascii" RangeMin="0" RangeMax="8.1424384105">
          0 0 0 0 0 0
          2.8836538792 -0.0073582995683 0 3.8164100647 0.076217547059 0
          2.7700643539 0.11833558977 0 4.1681375504 0.06541916728 0
          0 0 0 3.9166097641 -0.12497075647 0
          3.0603306293 0.028412163258 0 3.7553548813 -0.05675810948 0
          0 0 0 4.0409078598 -0.15762645006 0
          3.9604203701 -0.12874232233 0 4.2204017639 -0.14003279805 0
          2.9936516285 -0.012138362974 0 3.6688303947 -0.084110230207 0
          0 0 0 4.5018835068 -0.16507199407 0
          3.4646236897 -0.10761024058 0 4.5085887909 -0.17021581531 0
          4.1518888474 -0.18991465867 0 2.8778033257 -0.041780270636 0
          4.8659329414 -0.14463786781 0 0 0 0
          5.2369117737 -0.1543520987 0 3.7546374798 -0.20068724453 0
          4.8531489372 -0.17165663838 0 3.3871181011 -0.13871277869 0
          5.4021964073 -0.13590344787 0 2.8279631138 -0.046938471496 0
          5.667137146 -0.10185943544 0 4.6958346367 -0.20455887914 0
          5.9038758278 -0.075008101761 0 0 0 0
          4.227314949 -0.21802268922 0 5.3569922447 -0.20673398674 0
          5.6664061546 -0.18704269826 0 3.6683633327 -0.19799557328 0
          5.9586491585 -0.13544292748 0 3.2749574184 -0.1406583041 0
          2.739615202 -0.034887872636 0 6.1841115952 -0.061651289463 0
          0 0 0 6.3288855553 -0.020140033215 0
          5.0264153481 -0.24873812497 0 4.2981162071 -0.2147282511 0
          5.5468153954 -0.25227546692 0 3.6806201935 -0.20282155275 0
          5.9814286232 -0.24945428967 0 6.2674880028 -0.1977584064 0
          3.1997585297 -0.13334061205 0 6.4330482483 -0.10318913311 0
          6.498647213 -0.015239054337 0 2.6360991001 -0.016114836559 0
          6.1465034485 -0.28382205963 0 3.5805542469 -0.17797552049 0
          6.4445161819 -0.27381068468 0 0 0 0
          6.5814261436 0.028787488118 0 4.3586993217 -0.19520695508 0
          5.868200779 -0.26116028428 0 6.5959267616 -0.18546159565 0
          5.3076601028 -0.21780568361 0 3.059848547 -0.12930318713 0
          6.6441831589 -0.060931064188 0 2.371899128 -0.021149858832 0
          6.6526703835 0.013389993459 0 6.6098470688 -0.29254469275 0
          5.1684513092 -0.16578659415 0 6.3770999908 -0.26644301414 0
          6.7312841415 -0.13633169234 0 6.7502241135 -0.23357088864 0
          0 0 0 6.6786108017 0.034683160484 0
          3.5942564011 -0.14364078641 0 6.154024601 -0.20247879624 0
          2.9961769581 -0.10650837421 0 4.4349617958 -0.14530234039 0
          6.6910762787 -0.025477726012 0 5.8593683243 -0.14128403366 0
          2.3403406143 -0.042005714029 0 6.6888742447 0.015072189271 0
          6.8857679367 -0.14418002963 0 6.84197855 -0.22997325659 0
          6.9425845146 -0.20906043053 0 5.5005140305 -0.082545183599 0
          6.6970067024 -0.15912134945 0 0 0 0
          6.7154550552 0.013728749007 0 3.498388052 -0.12416280806 0
          6.7967400551 -0.0070427930914 0 6.4800882339 -0.07412083447 0
          2.9507272243 -0.099220812321 0 5.1516742706 -0.058347996324 0
          4.2706685066 -0.10356191546 0 6.1866388321 -0.019015481696 0
          2.2578663826 -0.032123539597 0 6.7199525833 0.020602289587 0
          6.7451257706 0.038996305317 0 6.9452915192 0.032530203462 0
          7.1097502708 -0.03977887705 0 7.1459679604 -0.093821652234 0
          7.2164120674 -0.089152626693 0 3.5949237347 -0.11717162281 0
          5.9152779579 0.022469181567 0 6.9986982346 -0.007640441414 0
          0 0 0 6.6958246231 0.012884060852 0
          6.7662215233 0.068526126444 0 2.9106948376 -0.088176093996 0
          5.3854885101 -0.010009853169 0 6.8216929436 0.14626635611 0
          6.5776352882 0.11790816486 0 2.1946721077 -0.053885471076 0
          6.6430959702 0.0337879695 0 7.3900885582 -0.0045562866144 0
          7.3170509338 0.015137289651 0 7.287147522 0.07318611443 0
          7.0161452293 0.19503109157 0 4.6279191971 -0.051318064332 0
          6.2865691185 0.1182134077 0 3.5757853985 -0.10036545247 0
          7.163418293 0.10593082011 0 6.6503767967 0.11845692992 0
          0 0 0 6.5717277527 0.017074979842 0
          2.9235451221 -0.062766432762 0 6.9771242142 0.18345192075 0
          6.7434134483 0.28340950608 0 2.3215007782 -0.042145065963 0
          5.8666963577 0.044578175992 0 6.499229908 0.058750856668 0
          7.4283275604 0.012014395557 0 6.8570027351 0.20174396038 0
          7.3283462524 0.072983846068 0 4.4437279701 -0.08561436832 0
          7.3643255234 0.037544604391 0 6.5833787918 0.23175226152 0
          7.0262155533 0.23189397156 0 7.2070832253 0.12653949857 0
          0 0 0 6.3375201225 0.05107017234 0
          5.3605113029 -0.037442471832 0 3.2113716602 -0.088464319706 0
          6.3964066505 0.15612655878 0 6.7116179466 0.34970605373 0
          7.0614495277 0.19660851359 0 6.8221764565 0.18605022132 0
          7.347840786 -0.04680673033 0 6.477991581 0.34032467008 0
          7.2645287514 -0.0077927103266 0 2.1862568855 -0.062714725733 0
          6.2182016373 0.093486942351 0 6.3050332069 0.048449382186 0
          6.2512879372 0.26141554117 0 7.2579455376 -0.023400569335 0
          6.636469841 0.30474698544 0 4.771812439 -0.12937092781 0
          7.097922802 0.084673337638 0 0 0 0
          5.960111618 0.10591433197 0 6.8649716377 0.15390074253 0
          6.9989786148 0.17529214919 0 6.0480499268 0.17251503468 0
          6.0349349976 -0.043960213661 0 2.9776594639 -0.041912890971 0
          6.8172903061 0.054284140468 0 2.0199811459 -0.050798289478 0
          6.2163047791 0.36818665266 0 3.675637722 -0.15345571935 0
          5.7478137016 0.13061781228 0 7.1984496117 -0.15958204865 0
          6.9752268791 0.085680060089 0 5.821873188 0.24161417782 0
          6.5914912224 -0.037549387664 0 5.9042925835 0.32306870818 0
          4.704102993 -0.15116304159 0 7.1062483788 -0.11510983855 0
          6.7848491669 -0.03338817507 0 0 0 0
          5.3759727478 0.17246943712 0 5.6608777046 -0.1212605387 0
          6.188867569 0.25989621878 0 6.9653000832 0.0088157765567 0
          6.8907465935 0.07060251385 0 2.7748501301 0.048911791295 0
          6.9350156784 -0.058859538287 0 5.3668756485 0.18780681491 0
          5.6702160835 0.32988286018 0 3.0372359753 -0.16619823873 0
          6.3447089195 -0.14618487656 0 5.0825152397 0.18275626004 0
          6.2508187294 0.10101237893 0 4.2650938034 -0.16791428626 0
          6.9493932724 -0.054758299142 0 5.2290883064 0.25121551752 0
          5.6189632416 0.29634347558 0 6.7882070541 -0.18147774041 0
          6.7572317123 -0.17234937847 0 5.2819566727 -0.19842630625 0
          7.0107383728 -0.23923526704 0 5.205701828 0.29476973414 0
          6.9802918434 -0.14169375598 0 0 0 0
          4.5678524971 0.21833832562 0 2.2455234528 0.070401623845 0
          6.2983093262 -0.049251377583 0 6.0281376839 -0.21673224866 0
          5.6496715546 0.19303263724 0 2.5947360992 -0.15457396209 0
          6.9676661491 -0.18495152891 0 4.4025945663 0.20042072237 0
          6.8889536858 -0.015359063633 0 6.8649921417 -0.0012885049218 0
          3.6476137638 -0.14565165341 0 5.0270137787 0.279912889 0
          6.5408463478 -0.26094213128 0 4.7669472694 -0.20168200135 0
          4.163631916 0.16206821799 0 6.3738770485 -0.11004692316 0
          5.7005887032 0.085491172969 0 6.7269001007 -0.19344091415 0
          4.1043314934 0.24198503792 0 5.0425858498 0.23633122444 0
          4.2962832451 0.24775791168 0 6.9803609848 -0.12602765858 0
          5.6709833145 -0.23441894352 0 6.9334306717 -0.18384560943 0
          6.8876056671 -0.28508025408 0 2.2765007019 -0.054023817182 0
          3.988145113 0.17221607268 0 0 0 0
          4.2820463181 0.26857256889 0 6.9009346962 0.046124573797 0
          5.833782196 0.0062069906853 0 3.0628156662 -0.12891682982 0
          6.2592382431 -0.27841511369 0 3.9809215069 0.1636518389 0
          6.9487862587 -0.072871364653 0 5.0233492851 0.17019787431 0
          4.1736688614 -0.17531386018 0 7.0555839539 -0.24268969893 0
          6.9592251778 0.0030384650454 0 5.2332663536 -0.2089844048 0
          6.714931488 -0.31934124231 0 4.1252264977 0.23056486249 0
          6.9286980629 0.06432466954 0 2.1639699936 -0.038837593049 0
          6.1647567749 -0.09506175667 0 3.7328243256 0.22817510366 0
          3.9179801941 0.16236178577 0 5.1195912361 0.11230438203 0
          6.5269770622 -0.11434718966 0 5.9549679756 -0.2480853647 0
          4.1551275253 0.20109422505 0 3.6348040104 0.22082678974 0
          7.1240448952 -0.10316350311 0 6.849896431 -0.067315392196 0
          2.2725822926 -0.11088549346 0 7.0385699272 -0.29845991731 0
          6.9813466072 0.14662061632 0 0 0 0
          4.1117992401 0.0046069668606 0 3.54870224 0.20951746404 0
          3.7130637169 0.11078741401 0 4.2190365791 0.16469585896 0
          6.4642634392 -0.28239005804 0 6.9308595657 0.083326369524 0
          3.7303278446 0.090770348907 0 5.3077645302 0.03185724467 0
          4.7523589134 -0.15595164895 0 3.4893734455 -0.14424078166 0
          5.665245533 -0.19723828137 0 7.2366285324 -0.19927033782 0
          3.5248601437 0.20467913151 0 7.1348419189 0.10792619735 0
          5.9505844116 -0.051964148879 0 2.031983614 -0.05321630463 0
          6.9763202667 0.22053262591 0 3.5328769684 0.12667876482 0
          6.9446783066 -0.27657911181 0 3.7587969303 -0.029607865959 0
          6.3171238899 -0.02000714466 0 4.194231987 0.12542751431 0
          3.4615235329 0.14976090193 0 6.686612606 0.060794401914 0
          3.4837548733 0.18953259289 0 6.1498403549 -0.19422341883 0
          7.3473110199 -0.0016007744707 0 7.2321772575 -0.22248281538 0
          7.0741291046 0.2665899694 0 3.1493287086 0.045450940728 0
          0 0 0 2.2701442242 -0.10769097507 0
          3.3860218525 0.15748344362 0 6.801712513 0.21037146449 0
          2.8447592258 -0.10181736946 0 3.4837684631 0.15594317019 0
          3.0149843693 0.0086186062545 0 5.691906929 -0.11118597537 0
          4.6448750496 -0.094959892333 0 4.9533791542 0.034890118986 0
          7.4756779671 -0.085655622184 0 2.9813835621 0.05079934001 0
          7.2708821297 0.20161435008 0 4.1525931358 0.088267974555 0
          3.3004133701 0.14675673842 0 5.5971775055 0.016288222745 0
          6.8310422897 -0.17131763697 0 1.9471482038 -0.038911569864 0
          6.0598659515 0.069963403046 0 6.9130692482 0.31780335307 0
          2.8384735584 0.043736509979 0 7.1852650642 -0.16433672607 0
          3.3856706619 -0.080937199295 0 3.4911715984 0.1454052031 0
          2.718328476 0.054396960884 0 6.3721523285 0.16233120859 0
          6.4465785027 -0.084448985755 0 3.1823413372 0.13777345419 0
          7.5105209351 0.079302757978 0 7.4816002846 -0.095826819539 0
          7.0656337738 0.32205492258 0 0 0 0
          0 0 0 0 0 0
          0 0 0 2.2580451965 -0.081616044044 0
          2.600051403 0.045289266855 0 0 0 0
          6.5609207153 0.28243267536 0 3.1428081989 0.11621064693 0
          3.8532700539 0.082976169884 0 5.4904766083 0.0028812969103 0
          3.4606926441 0.097145646811 0 4.4715781212 0.091562576592 0
          4.4805555344 -0.019098285586 0 0 0 0
          5.2344498634 0.077598839998 0 7.64874506 -0.0078919166699 0
          7.320748806 -0.051239617169 0 2.4822337627 0.041386183351 0
          7.2914223671 0.2217361182 0 1.8384982347 -0.029640732333 0
          3.3606877327 -0.021659003571 0 5.6911087036 0.1483283937 0
          6.7305750847 0.33144718409 0 0 0 0
          6.1655535698 0.02548102662 0 6.9738125801 0.026448138058 0
          0 0 0 6.037252903 0.22492563725 0
          2.2686662674 0.033775411546 0 0 0 0
          6.9255442619 0.283701092 0 7.545609951 0.080570064485 0
          2.9704389572 0.10364910215 0 7.6467394829 -0.0030287862755 0
          2.2781429291 -0.048229821026 0 3.6003837585 0.088640801609 0
          0 0 0 6.2675843239 0.29096487164 0
          4.899892807 0.11188611388 0 3.9650566578 0.14861193299 0
          2.2492959499 0.036598876119 0 4.3547568321 0.056486237794 0
          3.148578167 0.10163805634 0 1.7713515759 -0.028584238142 0
          7.6655426025 0.0065814647824 0 0 0 0
          7.1416993141 0.15319609642 0 7.4926300049 0.055528316647 0
          5.2570977211 0.19773454964 0 6.1428785324 0.13635991514 0
          3.4859223366 0.025788141415 0 6.484433651 0.27485269308 0
          5.4047021866 0.12025845051 0 6.8444137573 0.17171515524 0
          5.6432342529 0.22843384743 0 0 0 0
          7.4319109917 0.012587136589 0 1.8327807188 0.031374618411 0
          0 0 0 6.7444896698 0.1773994714 0
          2.3332614899 -0.022856203839 0 7.6723217964 -0.00013245156151 0
          3.1689171791 0.059091500938 0 3.5073297024 0.15882702172 0
          5.9266638756 0.24000886083 0 7.2866177559 0.15233741701 0
          4.5748400688 0.10024365038 0 4.2718257904 0.1400667578 0
          2.1085598469 0.029796410352 0 0 0 0
          6.0916433334 0.20869849622 0 1.7438410521 -0.017013274133 0
          6.1810293198 0.19040907919 0 7.5463480949 -0.065792135894 0
          6.9764432907 0.031731434166 0 4.7414832115 0.18740709126 0
          7.5471930504 0.058342114091 0 6.6173653603 0.23585994542 0
          3.5597324371 0.055500052869 0 2.1970303059 0.036593046039 0
          0 0 0 5.1897101402 0.17942324281 0