<?xml version="1.0"?>
<VTKFile type="PolyData" version="0.1" byte_order="LittleEndian" compressor="vtkZLibDataCompressor">
  <PolyData>
    <Piece NumberOfPoints="1041" NumberOfVerts="0" NumberOfLines="0" NumberOfStrips="0" NumberOfPolys="1940">
      <PointData>
        <DataArray type="Float32" Name="PRESSURE" format="ascii" RangeMin="-8.8625497818" RangeMax="4.3751831055">
          0 0.12485961616 0 0.028201011941 0.099001735449 0
          0.026153823361 0.0045326286927 0.061988260597 0.00079301680671 0.012548667379 0
          -0.071877293289 -0.054810326546 0.0020750539843 -0.053447969258 0.0097699612379 0
          -0.04793485254 -0.10772913694 -0.11894036084 -0.018868763 -0.069252721965 -0.020451653749
          0 -0.089090824127 -0.13412760198 -0.051391754299 -0.1308517307 -0.042201556265
          -0.079706534743 -0.13310867548 0 -0.03370058164 -0.084783814847 -0.16682966053
          -0.17602728307 -0.061400447041 -0.16236412525 -0.03373144567 -0.051384329796 -0.11157669872
          -0.047946605831 0 -0.088704071939 -0.036848258227 -0.12475984544 -0.020750418305
          -0.1719481796 -0.19810068607 -0.0053277420811 -0.18877118826 -0.11131612211 -0.03042472899
          -0.12086112797 0.0050270664506 -0.16690012813 0.0055159018375 0 0.011640548706
          -0.043784942478 -0.2017878592 -0.00073810189497 -0.0081437313929 -0.12442661822 -0.028845302761
          -0.077020004392 -0.11928438395 0.054792176932 -0.048396516591 -0.17287805676 -0.17013156414
          -0.0306726899 0 0.012391882017 0.040378913283 -0.011581043713 0.043319776654
          -0.13887934387 0.075046867132 -0.071588799357 -0.095674946904 -0.095752991736 -0.025691177696
          -0.092365004122 0.089606545866 0.022227279842 -0.073710121214 0 -0.030766541138
          -0.15820723772 0.072674453259 -0.073045745492 0.030670683831 -0.0026651574299 0.09308630228
          -0.13007643819 -0.085697345436 -0.11056786031 -0.11359540373 -0.035911601037 0.0014646984637
          -0.028308648616 -0.098480440676 0.05320610106 0.035548139364 -0.13793301582 0
          0.074737966061 -0.1601164341 -0.0067996811122 -0.15481764078 0.029065297917 -0.23326952755
          -0.12580098212 0.0073922998272 0.024547139183 0.018610278144 -0.11850009859 -0.14429295063
          -0.00121049257 -0.18064588308 0.028651684523 -0.16800639033 -0.25130981207 0
          -0.24107000232 0.039668057114 -0.15318033099 -0.31863629818 -0.17469458282 -0.11108466983
          0.0088302474469 -0.063166484237 0.036554187536 -0.26665094495 -0.013167244382 -0.20627221465
          -0.014830712229 -0.0048326514661 -0.26863092184 0 -0.28855091333 -0.31480589509
          -0.18608042598 -0.096162348986 -0.028183946386 -0.20230638981 0.0088190045208 -0.18234345317
          0.047400698066 -0.39291861653 -0.10384020209 -0.35813614726 -0.22348022461 -0.017198836431
          -0.0034290349577 -0.43632525206 -0.10882610083 -0.3863132298 0 0.087928473949
          -0.17148672044 -0.17447479069 -0.47528749704 -0.34299522638 -0.41188013554 -0.5251301527
          -0.028753910214 -0.42655566335 -0.088892474771 0.012135560624 -0.36743304133 -0.17543613911
          -0.52094483376 -0.12968853116 -0.46650278568 -0.09253565222 0.12328128517 -0.37520903349
          0 -0.529497087 0.084095835686 -0.14635303617 -0.32967561483 -0.34320572019
          -0.50081825256 -0.15774784982 -0.065421767533 -0.38961356878 -0.58547347784 -0.079681366682
          0.15567290783 -0.44543287158 -0.45520049334 -0.14936096966 0.044004827738 0.080410242081
          -0.59194219112 -0.50862580538 -0.051961928606 -0.074451617897 -0.16799438 -0.34368929267
          0 -0.28353881836 0.15707597136 -0.58028674126 0.11669387668 -0.35030609369
          -0.56652456522 -0.12002053857 -0.25882464647 -0.3833527267 -0.39404752851 -0.010480126366
          -0.59628093243 -0.4238114953 -0.06308594346 0.12691085041 0.16087023914 -0.031520020217
          -0.099980354309 0.066590696573 -0.082912012935 -0.47391986847 -0.5095435977 -0.17280595005
          -0.59931129217 -0.23861952126 0 -0.19655042887 -0.012342552654 -0.42840054631
          0.13868020475 -0.28997644782 -0.52525049448 -0.087218247354 -0.37362372875 0.11856663227
          -0.32261165977 -0.50929266214 -0.44555312395 -0.38727849722 -0.56195032597 0.033682018518
          -0.46008419991 -0.1806718111 0.0099988160655 -0.055906705558 -0.01670232974 0.1256262213
          -0.19991609454 -0.40815669298 0.079799860716 -0.02902591601 -0.46106243134 -0.37542578578
          -0.20376700163 -0.47751775384 -0.4965313971 -0.16304598749 0 0.0049652513117
          -0.020914250985 0.10425784439 -0.44239029288 -0.51186752319 -0.0021506331395 0.041042357683
          -0.25888127089 -0.20456418395 -0.29767087102 -0.44552415609 0.040384240448 -0.45310622454
          -0.1589024961 -0.19738937914 -0.5751734376 0.0016821275931 -0.41298633814 0.031988490373
          -0.37189137936 0.082551494241 0.0088135385886 -0.52233594656 0.059285677969 -0.33357745409
          -0.38939625025 -0.39799234271 -0.53041481972 0 -0.19259358943 -0.16811719537
          0.017787624151 -0.61286586523 0.095611356199 0.062687620521 0.064038641751 -0.18978005648
          -0.1502289474 -0.14331324399 -0.33867177367 0.017666507512 -0.41469234228 -0.0035450961441
          0.030397158116 -0.30018892884 -0.25401827693 -0.22284068167 -0.4814338088 -0.60010814667
          0.00090603937861 -0.33140140772 -0.16169685125 0.023939732462 -0.003378696274 -0.59337645769
          -0.24292606115 0.019606551155 -0.30337885022 -0.26983824372 -0.50938552618 0
          -0.21566602588 0.090680465102 0.059875309467 -0.1985848099 -0.0063088797033 0.058823540807
          -0.60954165459 0.023111719638 -0.14998178184 -0.084666617215 -0.055600047112 -0.28478112817
          -0.1201319173 0.032818194479 -0.41650664806 -0.2371147424 -0.23135535419 0.012666292489
          -0.35732552409 -0.26830768585 -0.20071212947 -0.53573602438 -0.52978855371 0.020229270682
          -0.11416549981 -0.20448864996 0.008892333135 -0.58124941587 -0.015110150911 -0.28003507853
          -0.4193648994 -0.26239016652 -0.056453488767 -0.19461292028 -0.27385979891 -0.24125701189
          0.0089468676597 -0.53503423929 -0.46412783861 -0.40316918492 -0.022515287623 -0.21400597692
          -0.1927729696 -0.36532342434 -0.21477732062 0.024281619117 -0.22449687123 -0.25173181295
          -0.50541836023 -0.10639708489 -0.31081458926 -0.40275132656 -0.18695616722 -0.19634351134
          -0.47512030602 -0.025204544887 -0.20871810615 -0.065288700163 -0.39731097221 -0.33855473995
          -0.39519181848 -0.22184975445 -0.30932596326 -0.42684912682 -0.37936475873 -0.21035577357
          -0.34168589115 -0.44550427794 -0.19062481821 0.019315969199 -0.23477330804 -0.49471396208
          -0.28116384149 -0.22623465955 -0.17031884193 -0.40915799141 -0.24826218188 -0.23952034116
          -0.46199670434 -0.29811391234 -0.12021190673 -0.34465530515 -0.36922618747 -0.26498642564
          -0.52141481638 -0.17620439827 -0.54176527262 -0.33413994312 -0.25049307942 -0.36942246556
          -0.15883654356 -0.25283795595 -0.39561659098 -0.20919825137 -0.27643510699 -0.36628642678
          -0.41567587852 -0.55121284723 -0.60330098867 -0.22078147531 -0.61604499817 -0.13846319914
          -0.25964894891 -0.27760475874 -0.36731994152 -0.28986260295 -0.30859324336 -0.52070486546
          -0.17075619102 -0.63172775507 -0.34971597791 -0.61949360371 -0.31059658527 -0.1746404469
          -0.70576703548 -0.68016111851 -0.26608535647 -0.092776678503 -0.23584331572 -0.33468171954
          -0.40055137873 -0.58291089535 -0.71709048748 -0.24528628588 -0.052179925144 -0.76103562117
          -0.1011666581 -0.33346763253 -0.52580910921 -0.2434912622 -0.18586626649 -0.14001263678
          -0.77077537775 -0.079866170883 -0.34364116192 -0.72753435373 -0.81032383442 -0.33692404628
          -0.18681961298 -0.76622503996 -0.52905827761 -0.14172293246 -0.75492072105 -0.45998239517
          -0.088871739805 -0.79924565554 -0.31199243665 -0.098238401115 -0.33510378003 -0.86578190327
          -0.18985626101 -0.11724963039 -0.68278282881 -0.45646598935 -0.11881745607 -0.94633835554
          -0.78906297684 -0.91513800621 -0.84133386612 -0.31091618538 -0.12108711898 -0.12119441479
          -0.88425666094 -0.64989745617 -0.51505708694 -0.81600338221 -0.83775264025 -0.14882369339
          -0.89538478851 -0.59406471252 -0.22471342981 -0.28830963373 -0.19825993478 -0.96209597588
          -0.35972514749 -0.10878141224 -0.75636863708 -0.56791549921 -0.17338614166 -0.9273443222
          -0.77661246061 -0.81521975994 -0.63762688637 -0.92399692535 -0.18019780517 -0.88368499279
          -0.65702182055 -0.76049077511 -0.84185308218 -0.13252973557 -0.25272646546 -0.81235468388
          -0.74552077055 -0.64219623804 -0.3409742415 -0.42225602269 -0.66827851534 -0.86741280556
          -0.53248339891 -0.26718506217 -0.70544242859 -0.81948196888 -0.70389658213 -0.71334218979
          -0.81397241354 -0.77462142706 -0.17489464581 -0.77735710144 -0.6684294939 -0.7596411109
          -0.63869297504 -0.3918941617 -0.65076977015 -0.74125868082 -0.63015693426 -0.61515152454
          -0.37063157558 -0.87589997053 -0.86341798306 -0.68968975544 -0.74011152983 -0.54931658506
          -0.56573426723 -0.29647168517 -0.63508218527 -0.53935354948 -0.9335089922 -0.79923593998
          -0.51637631655 -0.872833848 -0.51711082458 -0.4634385705 -0.52719455957 -0.53221458197
          -0.45536711812 -0.56970912218 -0.490149647 -0.39059877396 -0.46089860797 -0.87660497427
          -0.49702486396 -0.95035368204 -0.6419968009 -0.77509957552 -0.3551813364 -0.66244596243
          -0.29710817337 -0.37661316991 -0.91767138243 -0.58103609085 -0.26835519075 -0.95338147879
          -0.7336961031 -0.48357224464 -0.22547367215 -0.24643461406 -0.45328772068 -0.37486797571
          -0.21599198878 -0.80858910084 -0.95104366541 -0.20762683451 -0.78318297863 -0.54568427801
          -0.17191128433 -0.71626269817 -0.1810439378 -0.34296190739 -0.61516958475 -0.0019269289915
          0.008801500313 -0.22073039412 -0.15583145618 -0.90560984612 0.048261806369 -0.84596383572
          -0.61368215084 0.063921637833 -0.35528445244 -0.19398854673 0.053181279451 -0.68653094769
          -0.86880522966 -0.78554475307 0.019738150761 -0.81980544329 0.079540386796 -0.71110969782
          -0.39724496007 -0.050586875528 0.20644915104 -0.16866187751 0.24712570012 0.30817446113
          -0.1923289299 -0.052931107581 0.33532086015 -0.83656382561 -0.44819009304 -0.70578420162
          -0.81187272072 0.3000395298 -0.20526096225 -0.079686485231 -0.80672091246 0.24564528465
          -0.77763879299 -0.46216952801 0.13778138161 -0.69917047024 0.21706226468 -0.066157847643
          0.32445657253 0.3457390964 0.42582753301 -0.19039852917 0.063811935484 0.51525712013
          -0.026457741857 0.47783127427 0.0055441828445 -0.68627786636 -0.74590498209 -0.19771201909
          -0.46471732855 0.42475071549 -0.76768636703 0.0091045005247 0.28358277678 0.014088639058
          -0.21376015246 0.39903569221 0.16141298413 0.44386157393 0.35348361731 -0.46745717525
          0.55307334661 0.054688870907 0.054744128138 0.52423924208 0.071860432625 -0.61841779947
          0.47488239408 -0.49769964814 -0.67591965199 -0.23163430393 0.13991868496 0.03614218533
          0.34140565991 0.076660238206 0.33093425632 0.04934637621 0.23355932534 0.19522437453
          0.34759959579 0.088542707264 0.048258893192 0.2614697814 0.37574148178 0.39439469576
          -0.24877800047 0.15044631064 -0.42584356666 0.011776131578 0.29865056276 0.33509331942
          -0.52280622721 0.16894601285 0.28414151073 0.01823932305 0.10337496549 0.0065309954807
          0.32214602828 -0.029768932611 0.39399927855 -0.051931858063 0.057005669922 -0.097020365298
          -0.031402520835 -0.021494979039 0.27324616909 0.0011283390922 -0.19834539294 -0.33382117748
          0.17724145949 -0.097139492631 -0.016945289448 0.4633564055 -0.1053262502 -0.26710423827
          -0.24626712501 0.30877560377 0.22012937069 -0.069113619626 -0.26867842674 -0.2467712909
          0.46784776449 -0.080995090306 0.41470947862 -0.13420027494 -0.074415646493 -0.3746470809
          -0.28452733159 -0.65522998571 -0.43607664108 0.39652252197 0.11517758667 0.0093265278265
          -0.72962844372 -0.75272709131 -0.68083441257 0.491792202 -0.28759026527 0.208859846
          -0.74497747421 -0.62527501583 -0.29119279981 0.30042392015 0.030772859231 -0.6170425415
          0.48804801702 0.2498279959 -0.37099313736 -0.74194937944 -0.5515896678 -0.85190135241
          0.13182747364 0.38068258762 -1.1405955553 -0.24188834429 -1.3653262854 -0.64043962955
          0.31414538622 -1.2586883307 -0.97173821926 -0.72131073475 -1.113214016 -1.1723273993
          0.11201103777 -1.4146584272 0.28523412347 -0.90385609865 -0.81316685677 -0.13900431991
          -1.0523818731 -0.88463306427 -1.1335325241 0.23276565969 -1.3692911863 -1.5000010729
          -1.0200351477 -1.4287022352 0.24194918573 -1.3299475908 -0.071453765035 0.26242008805
          -1.2006644011 -0.76732426882 -1.3044726849 -1.1793626547 0.25064426661 -1.2446393967
          -1.4152553082 -1.0275626183 -1.2563284636 -1.2582215071 -1.1804668903 -1.2971830368
          -1.3550901413 -0.65310794115 -1.353179574 -1.2829853296 -1.2835142612 0.18055662513
          -0.098370373249 -0.33243215084 0.031738571823 -1.2082298994 -1.3308008909 -1.2815965414
          -1.2532008886 -1.4393336773 -1.0785439014 -1.0370588303 -1.1364197731 -1.2297096252
          -1.3988317251 -1.1926510334 -1.4492843151 -1.2976750135 -1.069098115 -0.28224980831
          -0.078157231212 -0.48111066222 -1.4295585155 -0.81236881018 -1.0803192854 -1.4311010838
          -1.1931600571 -1.220878005 -0.95364040136 -1.4457275867 -0.92101985216 -1.4182631969
          -1.0406335592 -1.3373603821 -0.91307157278 -0.94579106569 -1.4879506826 -0.81082767248
          -0.40862497687 -0.63019704819 -1.3570338488 -0.90702575445 -1.0483579636 -1.1442067623
          -0.904776752 -1.5126978159 -1.2652757168 -1.0704994202 -1.3059663773 -0.82962906361
          -0.95819908381 -1.1135134697 -0.83092057705 -0.92440110445 -0.73989194632 -0.90954232216
          -1.2740402222 -1.5814648867 -1.4086977243 -1.0903581381 -0.86748200655 -0.89665216208
          -1.03254807 -0.78132009506 -1.6215976477 -0.87903934717 -1.3294587135 -1.1038572788
          -1.0891615152 -0.85851758718 -1.2803241014 -1.2256371975 -1.1040636301 -1.1443915367
          -1.0106034279 -0.87708956003 -0.90576004982 -0.84759306908 -1.7556693554 -1.237544179
          -1.5743575096 -1.2798855305 -0.86263257265 -0.88186013699 -0.93476724625 -1.456900239
          -1.8138585091 -0.76282554865 -0.85276895761 -1.2173296213 -1.2381330729 -1.0544762611
          -1.0398411751 -1.3194098473 -1.2782974243 -0.74529415369 -0.86197167635 -1.9722962379
          -0.9628200531 -1.2036757469 -0.80299293995 -0.78880661726 -1.863072753 -0.8548156023
          -1.6600286961 -1.0421533585 -1.4544695616 -2.085392952 -1.3597148657 -1.268196702
          -0.94922941923 -1.0811213255 -1.4079095125 -0.73296380043 -0.96658861637 -1.3601768017
          -1.1072260141 -2.2722399235 -0.65556704998 -2.2684924603 -0.71454846859 -1.1609205008
          -0.44067588449 -2.2649700642 -2.0066509247 -0.86232692003 -1.6503838301 -2.4060277939
          -1.4748463631 -1.2841422558 -1.0467526913 -1.3572399616 -1.5206540823 -0.51252925396
          -1.4719789028 -0.73335510492 -2.5445671082 -1.2772220373 -0.79692226648 -2.6509442329
          -0.26274868846 -2.8573048115 -1.3533364534 -2.4865019321 -1.0447298288 -1.6010206938
          -1.9220374823 -2.478260994 -1.6320030689 -1.5528050661 -1.22318542 -0.10855828226
          -1.3712177277 -1.499206543 -0.43944555521 -0.63207215071 0.10556203127 -2.4976484776
          -1.5230702162 -0.88749653101 0.25105398893 -2.6880981922 -2.2238633633 -3.1167342663
          -1.3681350946 -2.2856266499 -1.7318886518 -3.1100575924 -1.7180193663 -1.7909977436
          -2.5361821651 0.45408067107 0.13570846617 -1.8736588955 -1.1143993139 -1.643420577
          0.58297491074 -0.52837389708 0.98105078936 -2.2740888596 -2.1568415165 -1.4991865158
          -1.4875179529 1.0663150549 -0.26788160205 -1.026745677 -1.9686542749 -4.3357219696
          -2.0670809746 -1.964127183 1.0050563812 -6.0713758469 -2.3105287552 -2.7635500431
          -2.2610399723 0.52527558804 -2.4003162384 0.99278485775 1.995880723 -1.1111078262
          2.0650784969 -1.8456754684 -2.9192144871 -1.4172620773 0.082337871194 0.81010615826
          -2.5391981602 -2.2897155285 -2.6959121227 2.1513395309 -8.7793874741 -2.3672933578
          -8.2564878464 1.9647797346 -3.1226937771 -2.6664688587 -0.41491132975 4.3658032417
          0.9865911603 -3.0314874649 3.4277620316 -2.7687857151 2.8155455589 -2.6780736446
          -2.503059864 -6.0697979927 3.4698598385 -2.3735671043 4.3751831055 -4.4875102043
          -2.1346268654 -0.42096474767 -1.2168292999 -8.2653989792 -2.3974158764 -2.1651723385
          -0.15146884322 -8.8625497818 -2.8257441521 -1.5540550947 0.72574716806 -2.2460775375
          0.13351096213 -1.4550998211 -1.8505886793
        </DataArray>
        <DataArray type="Float32" Name="VELOCITY" NumberOfComponents="3" ComponentName0="X-VELOCITY" ComponentName1="Y-VELOCITY" ComponentName2="Z-VELOCITY" format="ascii" RangeMin="0" RangeMax="8.1551408987">
          0 0 0 0 0 0
          1.8766856194 0.013900908642 0 2.5429537296 0.048586800694 0
          1.7930443287 0.056752648205 0 2.9473874569 0.050315827131 0
          0 0 0 3.1775827408 -0.054386787117 0
          1.9808504581 0.0032472915482 0 2.7293007374 -0.023837052286 0
          0 0 0 3.7143690586 -0.086073443294 0
          3.6388726234 -0.035987138748 0 4.2838354111 -0.052165359259 0
          1.9265044928 0.0238248799 0 2.820050478 -0.031768739223 0
          0 0 0 4.7830204964 -0.059998672456 0
          2.5380837917 -0.023602772504 0 4.7981715202 -0.052535891533 0
          4.2720160484 -0.032343897969 0 1.8942985535 -0.0083782421425 0
          5.1880493164 -0.063229128718 0 0 0 0
          5.5854854584 -0.082321427763 0 3.6074302197 -0.015016727149 0
          5.1235280037 -0.023474438116 0 2.5360600948 -0.0039061119314 0
          5.5980978012 -0.053013242781 0 1.9188973904 -0.012340771034 0
          5.8612518311 -0.093215063214 0 4.9933419228 -0.00025722425198 0
          6.1722736359 -0.12236556411 0 0 0 0
          4.4348831177 0.019689105451 0 5.5605278015 -0.0019385785563 0
          5.8055720329 -0.022108584642 0 3.5092000961 0.010372846387 0
          6.0773248672 -0.069901905954 0 2.5500450134 -0.012328473851 0
          1.902545929 -0.0089630065486 0 6.3679070473 -0.13088190556 0
          0 0 0 6.6357584 -0.17104101181 0
          5.3299174309 0.035871844739 0 4.6229419708 0.03080008924 0
          5.7864756584 0.04352799058 0 3.6097943783 0.011340294033 0
          6.1502575874 0.042114339769 0 6.4117145538 -0.0055064829066 0
          2.6050162315 -0.011753357016 0 6.6394720078 -0.07050524652 0
          6.8237476349 -0.14666005969 0 1.8765012026 0.0028561940417 0
          6.3943586349 0.093386292458 0 3.4971115589 0.0080345673487 0
          6.6939640045 0.075828425586 0 0 0 0
          7.0796484947 -0.18546801805 0 4.7294125557 0.025289079174 0
          6.1688284874 0.084848150611 0 6.9444203377 0.02261345461 0
          5.6364002228 0.055428486317 0 2.5413537025 -0.025549281389 0
          7.1623063087 -0.073077127337 0 1.7077262402 -0.0063720904291 0
          7.311899662 -0.13166424632 0 6.9263300896 0.13840031624 0
          5.4941744804 0.031267844141 0 6.7059059143 0.13274736702 0
          7.3360567093 0.021132454276 0 7.1737952232 0.10628505051 0
          0 0 0 7.3587622643 -0.10279974341 0
          3.5658006668 -0.003515958786 0 6.4994807243 0.087509736419 0
          2.5264596939 -0.017858067527 0 4.809920311 0.0082951104268 0
          7.5218815804 -0.05168678984 0 6.1906628609 0.044037878513 0
          1.7261772156 -0.029216466472 0 7.5283288956 -0.035404898226 0
          7.4492235184 0.060854062438 0 7.1078872681 0.16044212878 0
          7.2789316177 0.13870660961 0 5.7708692551 -0.012313188054 0
          6.9923672676 0.12541612983 0 0 0 0
          7.4773311615 -0.0008837946225 0 3.4326808453 -0.012272474356 0
          7.6285910606 -0.0061982977204 0 6.799934864 0.052329801023 0
          2.5722072124 -0.030042340979 0 5.3809666634 -0.049238894135 0
          4.5298404694 -0.027591045946 0 6.4701695442 -0.016603553668 0
          1.6852382421 -0.019868953153 0 7.5261678696 0.046956483275 0
          7.6132597923 0.013193666935 0 7.5815176964 -0.02142929472 0
          7.4861063957 0.023385738954 0 7.1984620094 0.11379118264 0
          7.3093895912 0.094741716981 0 3.5675890446 -0.020709361881 0
          6.1170091629 -0.079071134329 0 7.1215586662 0.055924605578 0
          0 0 0 7.364200592 0.10437700897 0
          6.9710431099 -0.029684310779 0 2.5851538181 -0.036695215851 0
          5.4931678772 -0.095588475466 0 7.5272274017 -0.049626972526 0
          6.734058857 -0.10974984616 0 1.6504602432 -0.030845548958 0
          7.2532553673 0.11202868074 0 7.2049789429 0.02678309381 0
          7.1583986282 0.034694038332 0 7.3558626175 -0.063721641898 0
          7.4429812431 -0.12113653123 0 4.749505043 -0.076900705695 0
          6.3584856987 -0.16045589745 0 3.5191996098 -0.041327979416 0
          7.1598968506 -0.03659677878 0 7.2059049606 0.055429462343 0
          0 0 0 7.0524263382 0.16336241364 0
          2.6382734776 -0.027161059901 0 7.0896530151 -0.12987473607 0
          7.1917743683 -0.12623518705 0 1.7916440964 -0.024795643985 0
          5.7558336258 -0.16373622417 0 6.8756446838 0.14530491829 0
          7.1439242363 -0.0080066584051 0 6.9140534401 -0.18883997202 0
          7.2474761009 -0.093481957912 0 4.4645085335 -0.073544628918 0
          7.1421551704 -0.012043477036 0 6.9472990036 -0.039348877966 0
          7.2250828743 -0.18658779562 0 7.2124166489 -0.090648621321 0
          0 0 0 6.660349369 0.17486409843 0
          5.2291383743 -0.12003756315 0 3.103443861 -0.02004228346 0
          6.6170620918 0.062175512314 0 7.0110940933 -0.1853261292 0
          7.2164812088 -0.19076479971 0 6.8167910576 -0.24867215753 0
          7.1320281029 0.014847729355 0 6.7222371101 -0.11660627276 0
          7.1866545677 -0.049460459501 0 1.6912705898 -0.035180129111 0
          6.3911757469 0.13235078752 0 6.0767836571 -0.17915716767 0
          6.3747057915 -0.025753501803 0 7.1920905113 0.015417661518 0
          6.9074749947 -0.18465408683 0 4.6914095879 -0.080939948559 0
          7.3295016289 -0.084761530161 0 0 0 0
          6.1933851242 0.1255454123 0 7.0524830818 -0.14585080743 0
          7.310585022 -0.21068516374 0 6.1204743385 0.057552363724 0
          5.7035722733 -0.12955710292 0 2.7867043018 0.0041920747608 0
          6.7508640289 -0.19562833011 0 1.5728383064 -0.0064011104405 0
          6.4425363541 -0.1541698873 0 3.6592707634 -0.030144236982 0
          5.8676285744 0.083174236119 0 7.1834845543 0.086976282299 0
          7.1630678177 -0.2110774219 0 5.8752470016 -0.0061352495104 0
          6.4060115814 -0.1376940012 0 5.9978761673 -0.075317509472 0
          4.5486984253 -0.030148457736 0 7.3080134392 0.12584318221 0
          6.9682793617 -0.011501083151 0 0 0 0
          5.6094193459 0.073336407542 0 5.3293242455 -0.067159384489 0
          6.487760067 -0.13413770497 0 7.5109210014 -0.012536231428 0
          7.5429134369 -0.14205028117 0 2.3596377373 0.064634054899 0
          7.0144267082 -0.12860499322 0 5.4409294128 0.017431436107 0
          5.8387112617 -0.097854912281 0 3.1379249096 -0.022710228339 0
          6.0909438133 -0.061634577811 0 5.2479434013 0.058632928878 0
          6.5579771996 -0.043311458081 0 4.1776590347 -0.0049072313122 0
          7.4271683693 -0.10107277334 0 5.3109226227 -0.040625572205 0
          5.87799263 -0.096703521907 0 6.9577679634 0.14808982611 0
          6.707306385 -0.043215494603 0 4.9965839386 -0.014966676012 0
          7.1606259346 0.22851496935 0 5.3408741951 -0.069594062865 0
          7.3712291718 0.21350462735 0 0 0 0
          4.7099123001 0.061702448875 0 1.8148347139 0.054507020861 0
          6.5637459755 0.064113385975 0 5.7652292252 0.0097629558295 0
          5.9713144302 -0.052253052592 0 2.6300723553 -0.020204074681 0
          7.2299618721 -0.013840295374 0 4.5246539116 0.017843168229 0
          7.671394825 0.080895066261 0 7.7302994728 -0.044778753072 0
          3.7043719292 0.011574321426 0 5.2314105034 -0.066328987479 0
          6.4377994537 0.048796437681 0 4.5954537392 0.010077188723 0
          4.1632771492 0.027870235965 0 6.5203132629 0.13740357757 0
          5.9892745018 0.0093908710405 0 6.7812256813 0.23212900758 0
          4.210477829 2.5945108064e-005 0 5.3129944801 -0.05218943581 0
          4.4358925819 -0.03276149556 0 7.6482996941 0.0048160380684 0
          5.4314541817 0.049491409212 0 7.0031132698 0.27362161875 0
          7.0266609192 0.089575253427 0 2.2904963493 0.019805345684 0
          3.6324956417 0.06275742501 0 0 0 0
          4.4943804741 -0.040091700852 0 7.7679619789 0.03524979949 0
          5.9949154854 0.076077736914 0 3.2044043541 0.000617489859 0
          6.15974617 0.1122879535 0 3.6751816273 0.021641368046 0
          7.2324619293 0.23486302793 0 5.2976150513 -0.023583266884 0
          4.1705737114 0.017901802436 0 7.4654741287 0.098737321794 0
          7.8167390823 0.0060387095436 0 5.0622630119 0.050226211548 0
          6.7872719765 0.16752246022 0 4.3939599991 -0.037788111717 0
          7.4740662575 0.12583896518 0 1.7841550112 -0.0025389729999 0
          6.127655983 0.16574905813 0 3.5108087063 -0.0047284788452 0
          3.1259346008 0.055916443467 0 5.3223104477 0.020154351369 0
          6.3857674599 0.22708167136 0 5.8794736862 0.13435515761 0
          4.4589934349 -0.028847809881 0 3.5319817066 -0.005112180952 0
          7.7237305641 0.045510131866 0 6.7213788033 0.22374528646 0
          2.3964018822 -0.0076608895324 0 7.2770805359 0.20398591459 0
          7.6858410835 -0.0013648689492 0 0 0 0
          2.9333326817 -0.027249576524 0 3.5131995678 -0.0058637852781 0
          2.8608493805 0.010413007811 0 4.5380506516 -0.017343558371 0
          6.5405197144 0.20787987113 0 6.9833245277 0.14390513301 0
          2.6771848202 0.020186591893 0 5.3698730469 0.086363449693 0
          4.6841411591 0.032115992159 0 3.6716480255 -0.006911591161 0
          5.6307563782 0.11114422232 0 7.53779459 0.14279448986 0
          3.5950534344 -0.0081275152043 0 7.7480602264 -0.045947413892 0
          5.7798342705 0.17613899708 0 1.7340734005 -0.025885721669 0
          7.2638545036 0.0087839858606 0 2.6625537872 0.024744888768 0
          7.1236357689 0.27647578716 0 2.4571015835 -0.041228059679 0
          6.0552535057 0.19290670753 0 4.4776721001 0.013211379759 0
          2.6780369282 0.022082827985 0 6.4562349319 0.1457952261 0
          3.5836801529 -0.0044981343672 0 6.2462697029 0.19639290869 0
          7.6467843056 0.00021433846268 0 7.3543162346 0.23065336049 0
          7.4950265884 -0.1116194278 0 1.9965792894 -0.0058462987654 0
          0 0 0 2.4690115452 -0.032371450216 0
          2.7009689808 0.023246072233 0 6.7251319885 0.035054512322 0
          1.8331826925 -0.053386237472 0 3.6108002663 0.0035607179161 0
          1.9487068653 0.01184205059 0 5.7649149895 0.098946213722 0
          4.6382007599 0.0020402772352 0 4.9407658577 0.11425600946 0
          7.4709262848 0.10230612755 0 1.9416213036 0.0088770277798 0
          7.5613455772 -0.15939444304 0 4.3534288406 0.056013353169 0
          2.7149317265 0.016387559474 0 5.354352951 0.1426794529 0
          7.0388584137 0.28803217411 0 1.7152181864 -0.020849524066 0
          5.7413682938 0.13730072975 0 7.034995079 -0.11176769435 0
          1.8828239441 0.013217409141 0 7.2124357224 0.27406460047 0
          3.5836429596 -0.032292351127 0 3.6200997829 0.023273289204 0
          1.8495115042 0.018232818693 0 6.0822548866 0.058639124036 0
          6.6768550873 0.23444339633 0 2.6713807583 0.021339530125 0
          7.4453144073 -0.1046955809 0 7.3015756607 0.1904373616 0
          7.2813892365 -0.22884736955 0 0 0 0
          0 0 0 0 0 0
          0 0 0 2.471919775 -0.048861920834 0
          1.8195675611 0.010948536918 0 0 0 0
          6.4400801659 -0.062900587916 0 2.7184078693 0.018478384241 0
          3.9995548725 0.065227605402 0 5.5852031708 0.035007737577 0
          3.5173606873 0.036227889359 0 4.4673218727 0.10041229427 0
          4.5045452118 -0.045252718031 0 0 0 0
          4.9782104492 0.095835149288 0 7.2632555962 0.019410081208 0
          7.1941838264 0.23508295417 0 1.789272666 0.0078042680398 0
          7.365032196 -0.27142813802 0 1.643722415 -0.027818279341 0
          3.5158474445 -0.062879785895 0 5.3707156181 0.068808943033 0
          6.8017230034 -0.19788731635 0 0 0 0
          6.4456524849 0.10841847956 0 7.1079101563 0.19423605502 0
          0 0 0 5.7608594894 -0.019885651767 0
          1.6809666157 0.011014826596 0 0 0 0
          7.0986337662 -0.28909510374 0 7.2508115768 -0.19050224125 0
          2.5855827332 0.034121140838 0 7.1300301552 0.0874132514 0
          2.4565441608 -0.068971708417 0 3.6413285732 0.049632322043 0
          0 0 0 6.1643733978 -0.12951438129 0
          4.6834821701 0.046067614108 0 4.0169634819 0.076847843826 0
          1.7344709635 0.0081319240853 0 4.3778572083 -0.082875795662 0
          2.9318060875 0.04036469385 0 1.5826916695 -0.038372669369 0
          7.0859956741 -0.07647125423 0 0 0 0
          7.2253074646 -0.31579312682 0 7.091583252 0.086898468435 0
          4.9993309975 0.01189168077 0 6.4226956367 -0.007492759265 0
          3.5549402237 -0.095016412437 0 6.5657815933 -0.23968398571 0
          5.4897546768 -0.072173066437 0 7.0292887688 0.030830930918 0