<?xml version="1.0"?>
<VTKFile type="PolyData" version="0.1" byte_order="LittleEndian" compressor="vtkZLibDataCompressor">
  <PolyData>
    <Piece NumberOfPoints="1041" NumberOfVerts="0" NumberOfLines="0" NumberOfStrips="0" NumberOfPolys="1940">
      <PointData>
        <DataArray type="Float32" Name="PRESSURE" format="ascii" RangeMin="-11.737800598" RangeMax="1.454513669">
          0 0.94894260168 0 0.61314743757 0.92981874943 0
          0.74124729633 0.29294869304 1.020634532 0.60738378763 1.0080691576 0
          0.31654667854 0.1293476969 0.98630094528 0.63636744022 1.0076824427 0
          0.65959531069 0.26757377386 0.419565171 0.77853024006 0.14404244721 0.71307015419
          0 0.51684498787 0.31034836173 0.63907647133 0.18065948784 0.55977648497
          0.093013688922 0.33182904124 0 0.52088701725 0.39249697328 0.29069957137
          0.23964488506 0.48530122638 0.1556366384 0.47438490391 0.34917667508 0.07688356936
          0.36600467563 0 0.36536416411 0.39903795719 0.30422028899 0.43517902493
          0.24982537329 0.18884655833 0.49657744169 0.12165926397 0.057172175497 0.41135182977
          0.25215062499 0.38471847773 0.20731964707 0.56123757362 0 0.33028116822
          0.28756406903 0.15646418929 0.33859950304 0.33102020621 0.098231330514 0.35925018787
          0.04745894298 0.22741685808 0.32087916136 0.26151949167 0.14301009476 0.1860986352
          0.30966645479 0 0.28076326847 0.28659659624 0.36878660321 0.33577293158
          0.095071688294 0.30530551076 0.22336758673 0.04607180506 0.1779114157 0.24296031892
          0.21117307246 0.31690198183 0.26675868034 0.25885844231 0 0.27014788985
          0.13084827363 0.28355637193 0.22108139098 0.35136449337 0.28004530072 0.29424110055
          0.18861451745 0.036345180124 0.085122719407 0.16410802305 0.19917848706 0.25197139382
          0.22672683001 0.23584701121 0.29602453113 0.27446767688 0.17172634602 0
          0.28812107444 0.032362483442 0.29316455126 0.14065568149 0.29892587662 -0.071147896349
          0.04786458239 0.24393391609 0.26258337498 0.22391878068 0.18834069371 0.33648011088
          0.27691808343 0.20590122044 0.28190600872 0.098503924906 -0.21679185331 0
          -0.038216341287 0.29558187723 0.17426799238 -0.19781833887 0.281244874 0.055362358689
          0.25526615977 0.30154523253 0.2420373559 0.40100944042 0.27189034224 0.14664644003
          0.21924082935 0.28793752193 0.077911756933 0 0.22181789577 0.15881958604
          0.11268415302 0.20714482665 0.30837991834 0.32186102867 0.27513450384 0.18998359144
          0.25583660603 -0.26110747457 0.065028429031 0.33637645841 0.16659097373 0.28127601743
          0.23390759528 0.22557505965 0.29858452082 -0.22717046738 0 0.24404281378
          0.32554680109 0.13680925965 0.27991870046 0.29301917553 0.32201057673 -1.0214425325
          0.2322755903 0.2551881969 0.071245804429 0.2761489749 0.32540974021 0.19207030535
          0.33757168055 0.22651873529 0.39266389608 0.2924669683 0.2531169951 0.2615570724
          0 0.38194578886 0.25508293509 0.31283587217 0.33088234067 0.44296914339
          0.35332226753 0.18965266645 0.26668012142 0.45100823045 0.38885673881 0.092224642634
          0.25512865186 0.38548642397 0.35350206494 0.25731799006 0.27136659622 0.26222187281
          0.38026416302 0.4263241291 0.28458833694 0.28479224443 0.30200988054 0.4312081933
          0 0.75669270754 0.25845631957 0.42645198107 0.26104140282 0.45896947384
          0.38131120801 0.2327452004 0.33063241839 0.35369306803 0.43052789569 0.31533932686
          0.41123065352 0.47441372275 0.11111897975 0.27562361956 0.25334373116 0.26502478123
          0.30881711841 0.29338040948 0.32734307647 0.37930104136 0.47451278567 0.29106462002
          0.41244649887 0.91878658533 0 1.1563266516 0.33212128282 0.35305795074
          0.22282065451 0.66326653957 0.45812165737 0.2584861815 0.31179407239 0.27278167009
          0.59204101563 0.40733897686 0.37517341971 0.53468948603 0.44767251611 0.33101391792
          0.3390301168 1.2211108208 0.27392813563 0.44714125991 0.21111992002 0.24741871655
          0.2582924962 0.51083040237 0.28630265594 0.45622128248 0.40397799015 0.29273584485
          0.92774325609 0.43982195854 0.36925378442 1.1871110201 0 0.4035603106
          0.57840669155 0.26968547702 0.48942834139 0.32689893246 0.50012630224 0.19501356781
          0.62182044983 0.7419193387 0.55452698469 0.43285083771 0.36082804203 0.39899265766
          0.25720286369 1.0386511087 0.36021643877 0.59580338001 0.47285750508 0.59429985285
          0.26374071836 0.21472509205 0.55789721012 0.30617013574 0.25933498144 0.52591210604
          0.42775678635 0.46010163426 0.39436134696 0 1.0183520317 0.919896245
          0.4705452621 0.35058242083 0.87824892998 0.27519011497 0.89308714867 0.57859659195
          0.65703511238 0.1281851083 0.45267939568 0.80105859041 0.42318078876 0.26473015547
          0.41771617532 0.2639413476 0.51206833124 0.93832302094 0.26827886701 0.3883061707
          0.64131081104 0.49002352357 0.75136601925 0.10724844784 0.49118152261 0.33208340406
          0.53955936432 0.27229294181 0.45144104958 0.47760847211 0.42272427678 0
          1.0280994177 0.76601284742 0.77044647932 0.86328959465 0.32503074408 0.87975877523
          0.38310030103 0.23746363819 0.11632479727 0.6084048152 0.14228594303 0.12824347615
          0.67220240831 0.83142131567 0.19999708235 0.47344848514 0.50120258331 0.31089189649
          0.44986218214 0.87792998552 0.7223457098 0.31704455614 0.42136999965 0.68225651979
          0.56375724077 0.52812749147 0.53069007397 0.36797213554 0.091875731945 0.95071661472
          0.45342534781 0.47508049011 0.050208486617 0.49239400029 0.81550115347 0.28730267286
          0.41303089261 0.42701077461 0.25937524438 0.083242461085 0.2158152312 0.65033560991
          -0.13009013236 0.7379912138 0.4892641902 0.37069866061 0.47390991449 0.51042503119
          0.3668987751 0.57832914591 0.67051839828 0.46504795551 0.59145843983 0.53697764874
          0.42183598876 0.22968330979 0.49188032746 0.01640059799 0.7886711359 0.48855686188
          0.77191823721 0.50260281563 0.034814145416 0.1441000402 0.47659593821 0.52047842741
          0.61297863722 0.30845430493 -0.27184280753 0.39246639609 0.55849719048 0.63107687235
          0.49955937266 0.50686556101 0.50364625454 0.4392079711 0.50800943375 0.53425604105
          0.61929941177 -0.35250249505 -0.2354914844 0.50428438187 0.56438946724 0.52411466837
          0.80192697048 0.51126480103 0.72070246935 0.087210983038 0.5067576766 0.42106631398
          0.52610892057 0.54385095835 -0.46965679526 -0.35438293219 0.50972437859 0.39427393675
          0.51894694567 0.58205264807 0.68768000603 0.51652663946 0.51441061497 0.53163862228
          0.57725387812 0.50814956427 0.5133420825 -0.23143400252 0.43382245302 -1.0718154907
          0.5803694129 0.84875625372 0.50846278667 0.459302634 0.45271897316 0.53110021353
          0.56084674597 0.56394314766 0.51274442673 0.58950155973 0.65460830927 0.49143385887
          -0.51986294985 0.48704960942 0.55745846033 0.52559530735 0.56983184814 0.41828900576
          0.55079299212 0.48978358507 0.46788200736 0.74309122562 0.89985913038 0.72857218981
          0.4984216094 0.6396600008 0.20907221735 0.53313446045 0.38493582606 0.50009828806
          0.53448337317 0.37768989801 0.46740463376 0.89841330051 0.40102210641 0.47066158056
          0.64303290844 0.27895501256 0.38884681463 0.5816809535 0.51371717453 0.35830402374
          0.56151139736 1.2202464342 0.40504893661 0.46850767732 0.71135354042 0.37104231119
          0.31394323707 0.30389070511 0.33697706461 0.52744430304 1.2096287012 0.85159510374
          0.31809580326 0.41191273928 0.47253775597 0.22448188066 0.3128336668 1.013702631
          0.17264953256 0.42893841863 0.61491882801 0.59011286497 0.71086043119 0.17834767699
          0.55828338861 1.1697148085 0.31512957811 0.4835486114 0.72421115637 0.16126288474
          0.2483253479 0.069096051157 0.42344292998 0.11670099199 0.92156243324 0.16482432187
          0.34199264646 0.02008389309 0.12708964944 1.0088385344 0.76442909241 0.15760603547
          0.4183755517 0.47483438253 0.62402063608 0.60822194815 0.34830021858 -0.03561789915
          0.56899243593 0.63588315248 0.08515791595 -0.022755535319 0.1662144959 -0.094027914107
          0.41323342919 0.33017739654 0.92190766335 -0.031628388911 0.49681714177 -0.079210639
          -0.20812702179 0.67513465881 0.19403165579 -0.27923542261 0.0064654368907 0.54033863544
          0.63617360592 0.31819656491 0.41651439667 -0.24369084835 0.1988209337 0.61032277346
          -0.29322749376 0.54525351524 -0.28069388866 -0.34915995598 0.3007119 0.16765989363
          -0.22224117815 0.4519687593 0.69546639919 0.8060900569 -0.21766109765 -0.56722402573
          -0.60987013578 0.0054405666888 -0.48938632011 0.82931554317 -0.52402925491 0.15532740951
          -0.16191726923 0.30181801319 -0.018837742507 0.46392935514 -0.5941246748 0.69764173031
          -0.51885199547 -0.49729767442 0.13432687521 0.63914209604 -0.71587771177 0.40691933036
          -0.046886119992 0.9008654356 -0.7294498086 -1.0048980713 -0.22168922424 -0.46625596285
          -0.74063980579 -0.005346135702 0.23004938662 -0.7199754715 0.50599968433 -0.24274331331
          -1.0758618116 0.63351875544 -0.71579152346 -0.49670115113 0.67606729269 -0.7328427434
          -0.84180933237 -0.66851484776 -1.5953156948 0.2804608345 -0.86370515823 -0.023035462946
          -0.27732700109 -0.91222220659 -0.47710371017 -0.69146871567 -0.91159373522 -0.19543892145
          0.11554849148 0.54806786776 -0.89382386208 0.38308310509 -0.91955000162 0.84966045618
          -0.52474325895 -0.89500403404 -0.92360377312 -0.75352954865 -0.93725967407 -1.0621964931
          -0.71211600304 -0.89023524523 -1.0848559141 0.11632736027 -0.48629918694 -0.20075815916
          0.26719748974 -1.1109778881 -0.69444668293 -0.91420924664 0.19297625124 -1.0886634588
          0.44962859154 -0.47504344583 -1.1140322685 -0.038127221167 -1.1782650948 -0.90963727236
          -1.0367769003 -1.2433297634 -1.3219101429 -0.73889839649 -1.1036028862 -1.3350270987
          -0.8990124464 -1.3588994741 -1.1143157482 -0.027365434915 0.12716761231 -0.72571474314
          -0.43281257153 -1.3396077156 0.1768091023 -0.90168261528 -1.3639907837 -1.1195011139
          -0.71809792519 -1.2926623821 -1.3611252308 -1.4977351427 -1.053555727 -0.16637422144
          -1.6211540699 -1.1161804199 -0.91107690334 -1.6680966616 -1.3330173492 0.078591786325
          -1.6967557669 -0.19550572336 0.21713779867 -0.59443074465 -1.1108607054 -1.3347973824
          -1.3954039812 -0.92062443495 -1.7707915306 -1.3584127426 -1.1022620201 -1.7178554535
          -1.7525418997 -1.6367992163 -0.88519072533 -1.5328058004 -2.0922167301 -2.1623823643
          -0.43501117826 -1.3582413197 -0.29492247105 -1.5935649872 -1.1148533821 -2.1365888119
          0.019684007391 -2.2809915543 -1.3708833456 -0.75733596087 -1.9862315655 -1.6208474636
          -1.1300400496 -2.1608531475 -1.3713237047 -2.3925347328 -1.6776380539 -2.0805835724
          -2.7637200356 -2.1555566788 -1.1268519163 -2.3998651505 -0.64261251688 -0.21608494222
          -1.7244325876 -2.8617765903 -0.77379757166 -1.3808768988 -2.0140855312 -2.8287601471
          -2.5597791672 -1.8063097 -0.95440667868 -2.0651712418 -2.9273121357 -2.5859453678
          -1.4196591377 -1.2387661934 -1.7581503391 -0.59955453873 -2.2601001263 -2.6476686001
          -2.520950079 -3.433981657 -2.9596645832 -1.3998632431 -1.2335287333 -2.2660365105
          -3.4764254093 -3.3868396282 -3.1953835487 -1.7621010542 -2.4904983044 -2.198158741
          -3.4244537354 -3.0273489952 -2.6187710762 -1.207578063 -1.0186930895 -3.0498199463
          -1.8250112534 -2.3428452015 -2.8571305275 -3.0933380127 -2.9131700993 -3.3878052235
          -1.7476010323 -1.6687875986 -3.7922639847 -2.8513426781 -3.7256190777 -3.0500881672
          -2.2918868065 -3.621379137 -3.4067764282 -3.2294206619 -3.5021660328 -3.761015892
          -1.4513026476 -3.8494768143 -1.6005074978 -3.2347104549 -3.3582398891 -2.9624330997
          -3.4541490078 -3.2308650017 -3.6123366356 -2.2636499405 -3.8150780201 -3.7152922153
          -3.4167542458 -3.6299104691 -1.949884057 -3.5914604664 -2.8589169979 -1.3614231348
          -3.6433036327 -3.4741361141 -3.7652795315 -3.4288032055 -1.5895906687 -3.6334121227
          -3.7125675678 -3.3235778809 -3.6666035652 -3.6885688305 -3.4247615337 -3.7152488232
          -3.579939127 -3.455862999 -3.602887392 -3.7118268013 -3.556989193 -1.7382048368
          -2.5394654274 -3.0260567665 -1.9999319315 -3.5140984058 -3.7769613266 -3.759585619
          -3.7755906582 -3.71312356 -3.4709208012 -3.4555761814 -3.6076967716 -3.4956283569
          -3.7502145767 -3.7186288834 -3.7154452801 -3.7554605007 -3.5530695915 -2.5252268314
          -2.150280714 -3.0194513798 -3.6021313667 -3.4879450798 -3.5401515961 -3.8864710331
          -3.7912724018 -3.7693486214 -3.4931702614 -3.6465759277 -3.5194776058 -3.7817108631
          -3.7158546448 -3.8023092747 -3.6350324154 -3.5417044163 -3.8546395302 -3.3497564793
          -2.6356544495 -3.05346632 -3.6209175587 -3.6105730534 -3.5264439583 -3.743521452
          -3.5886805058 -4.0558037758 -3.9481804371 -3.517223835 -3.7874777317 -3.5843400955
          -3.7830729485 -3.8814692497 -3.589496851 -3.4192798138 -3.1802968979 -3.7895488739
          -3.6596028805 -4.0548911095 -4.0069637299 -3.5814118385 -3.6974253654 -3.6499047279
          -3.5610003471 -3.6830236912 -4.3155493736 -3.6217529774 -4.1059904099 -3.6181232929
          -3.9795718193 -3.6407430172 -3.7835063934 -3.6897113323 -3.9758856297 -3.6377544403
          -3.4773035049 -3.617628336 -3.8596184254 -3.6785018444 -4.3204212189 -3.6715083122
          -4.3456635475 -4.1803402901 -3.8474149704 -3.7355260849 -3.6996359825 -4.4878954887
          -4.6132645607 -3.7887101173 -3.7504012585 -4.1430368423 -3.5266160965 -3.7440962791
          -4.0353298187 -3.7145516872 -3.7398374081 -3.7304022312 -3.9810740948 -4.705072403
          -3.8222379684 -3.7784700394 -3.7827796936 -3.8628940582 -4.9034628868 -3.8410511017
          -4.8986325264 -3.9012386799 -4.6355462074 -5.010134697 -3.7545602322 -4.377368927
          -3.8901183605 -3.8301055431 -3.9089686871 -3.8243508339 -4.2132930756 -3.8763802052
          -3.9902100563 -5.0707039833 -3.9590446949 -5.2506341934 -3.8829953671 -3.9897511005
          -3.8068730831 -5.5883936882 -5.4684610367 -3.9898257256 -5.0550260544 -5.2511925697
          -3.9034090042 -4.0687260628 -4.0550289154 -4.7039003372 -4.0720500946 -3.870708704
          -4.090502739 -4.3069038391 -5.1799998283 -4.2394733429 -4.0729203224 -5.3137850761
          -3.8815398216 -5.8093957901 -4.3172774315 -5.8072657585 -4.2769799232 -4.0726008415
          -5.3631300926 -5.0404119492 -4.3095293045 -4.3430247307 -4.3778185844 -3.7231502533
          -4.9372644424 -4.5378708839 -4.0461478233 -4.7549319267 -3.9641098976 -5.0133719444
          -4.7059059143 -4.4052710533 -3.4461541176 -5.0802698135 -4.778547287 -5.6129822731
          -4.6689019203 -4.9408960342 -4.3359680176 -5.6277341843 -5.0005140305 -4.6294641495
          -5.8442368507 -3.2996959686 -3.861530304 -4.9197983742 -5.5987663269 -5.0794048309
          -4.5825366974 -4.5703921318 -3.0620288849 -5.0916404724 -5.5938825607 -5.071770668
          -5.0788960457 -2.6088721752 -4.7553944588 -3.6878943443 -4.7325129509 -3.7004761696
          -5.0000362396 -5.3003373146 -2.9793288708 -6.3410024643 -5.5962700844 -8.6486663818
          -5.2300577164 -4.572701931 -5.7407188416 -6.410446167 -2.3487958908 -5.6183190346
          -1.2425119877 -5.1216197014 -5.8199777603 -5.1515994072 -4.8962545395 -3.504270792
          -5.8594608307 -5.1115098 -2.127187252 -1.0388755798 -4.1974430084 -5.2409925461
          -10.483819008 -2.3662583828 -5.6511564255 -5.3284311295 -11.737800598 -4.5446314812
          -6.3963227272 -5.5824632645 1.243069768 -8.6259222031 1.454513669 -5.0108041763
          -5.2258973122 -6.3064413071 1.2302387953 -5.0035967827 -4.506439209 -3.54956007
          -4.7631196976 -11.715473175 -3.8108189106 -10.443341255 -5.0093870163 -4.8971157074
          -4.7740674019 -4.0848450661 -2.1103074551 -5.0970015526 -3.5173528194 -5.0626912117
          -4.9403781891 -5.1810889244 -5.1218900681
        </DataArray>
        <DataArray type="Float32" Name="VELOCITY" NumberOfComponents="3" ComponentName0="X-VELOCITY" ComponentName1="Y-VELOCITY" ComponentName2="Z-VELOCITY" format="ascii" RangeMin="0" RangeMax="8.4475336075">
          0 0 0 0 0 0
          3.9943246841 0.084141403437 0 5.4080486298 0.25463536382 0
          4.0657248497 0.19573819637 0 5.776447773 0.33023554087 0
          0 0 0 5.3866109848 0.084118552506 0
          4.5790200233 0.086145699024 0 5.3645868301 0.088439270854 0
          0 0 0 5.3502101898 0.08511158824 0
          5.3975915909 0.093970969319 0 5.3887610435 0.11622187495 0
          4.5824894905 0.04380140081 0 5.353281498 0.045755300671 0
          0 0 0 5.38560009 0.11288174242 0
          5.1853795052 0.0083837397397 0 5.3397121429 0.090375028551 0
          5.3972258568 0.079818122089 0 4.5282845497 -0.029207954183 0
          5.3218917847 0.088990613818 0 0 0 0
          5.3208246231 0.083249934018 0 5.4767155647 0.026207666844 0
          5.2609624863 0.055783286691 0 5.2090325356 -0.043400812894 0
          5.2591814995 0.055931504816 0 4.5497198105 -0.036602340639 0
          5.2779307365 0.059482943267 0 5.2540659904 0.032776452601 0
          5.3019576073 0.054051596671 0 0 0 0
          5.331720829 0.033611595631 0 5.2417650223 0.031952433288 0
          5.2487516403 0.039058279246 0 5.5819296837 -0.001837714226 0
          5.2717542648 0.041935835034 0 5.22641325 -0.042633317411 0
          4.5047736168 -0.023125547916 0 5.2940354347 0.042838834226 0
          0 0 0 5.3151946068 0.039779897779 0
          5.2258563042 0.018490144983 0 5.2855825424 0.016821660101 0
          5.2358317375 0.018996998668 0 5.6246504784 0.00064680690411 0
          5.2572960854 0.023970942944 0 5.2802128792 0.029455345124 0
          5.2734332085 -0.045660663396 0 5.2981910706 0.032699353993 0
          5.3131713867 0.033954482526 0 4.4218697548 0.0070865205489 0
          5.2734322548 0.020061772317 0 5.6598091125 -0.0098399724811 0
          5.2959527969 0.024575250223 0 0 0 0
          5.3281664848 0.030360233039 0 5.2588591576 0.0034073253628 0
          5.2539424896 0.01277606748 0 5.3075237274 0.02765962854 0
          5.2206587791 0.0025051455013 0 5.237660408 -0.050140801817 0
          5.3177309036 0.02754698135 0 4.0748724937 -0.015789497644 0
          5.3250713348 0.026391593739 0 5.306157589 0.022872716188 0
          5.2298774719 0.0023632885423 0 5.2980380058 0.019247287884 0
          5.3128285408 0.024217925966 0 5.3088760376 0.024109385908 0
          0 0 0 5.3310894966 0.023113863543 0
          5.6971611977 0.0066139069386 0 5.2869272232 0.015741759911 0
          5.2556648254 -0.045837920159 0 5.2410979271 0.0024924804457 0
          5.3163728714 0.0220510941 0 5.2685489655 0.010755746625 0
          4.1047058105 -0.03377892077 0 5.3212304115 0.01817982085 0
          5.3028950691 0.018361764029 0 5.3028092384 0.017766723409 0
          5.2994370461 0.018783392385 0 5.2426729202 0.0079261045903 0
          5.3037815094 0.015688309446 0 0 0 0
          5.3273363113 0.014226618223 0 5.7427310944 -0.0087186116725 0
          5.3063001633 0.016017939895 0 5.301325798 0.013007517904 0
          5.2958812714 -0.020534323528 0 5.2330460548 0.0070814159699 0
          5.2914309502 0.013067107648 0 5.2896728516 0.0092941951007 0
          4.0613307953 -0.025455208495 0 5.3189334869 0.0095786433667 0
          5.3100481033 0.010946783237 0 5.3001880646 0.012714781798 0
          5.2966365814 0.012398693711 0 5.2932052612 0.013908144087 0
          5.2901687622 0.014194659889 0 5.7644495964 0.0090012010187 0
          5.2690138817 0.0065138065256 0 5.2981505394 0.012884610333 0
          0 0 0 5.3253450394 0.0045272130519 0
          5.3041615486 0.013269192539 0 5.3436450958 -0.020891090855 0
          5.2302389145 -0.0062255375087 0 5.3004159927 0.0087872659788 0
          5.3069815636 0.013079238124 0 4.0536961555 -0.051135651767 0
          5.3174176216 0.00036962871673 0 5.2883348465 0.012321525253 0
          5.2883052826 0.011748780496 0 5.2979102135 0.010344800539 0
          5.2970523834 0.010370701551 0 5.1767301559 0.021848049015 0
          5.3008751869 0.015271238051 0 5.7791266441 0.070416755974 0
          5.2910027504 0.010522329248 0 5.3092393875 -0.00010135523917 0
          0 0 0 5.3265714645 -0.0050385189243 0
          5.4363875389 0.0058224834502 0 5.2944526672 0.011381490156 0
          5.294508934 0.0062713162042 0 4.4094023705 0.011215298437 0
          5.2826838493 0.012346222997 0 5.3175749779 -0.0077574909665 0
          5.2906703949 0.01153785456 0 5.3016724586 0.012732545845 0
          5.3008732796 0.0097786337137 0 5.2290616035 0.0069481790997 0
          5.288002491 0.01137812715 0 5.303691864 -0.0017741157208 0
          5.2913222313 0.011658364907 0 5.2898464203 0.009898356162 0
          0 0 0 5.3247141838 -0.013909473084 0
          5.2192645073 0.0020670704544 0 5.854903698 0.11083173752 0
          5.3107085228 -0.0086189638823 0 5.2894968987 0.0069574252702 0
          5.287168026 0.010098063387 0 5.3002047539 0.017093349248 0
          5.2918028831 0.0098331635818 0 5.3027768135 -0.0010555997724 0
          5.3014745712 0.0095812343061 0 4.3221411705 -0.05857213214 0
          5.3143749237 -0.014566558413 0 5.3173604012 0.031258579344 0
          5.306204319 -0.0064864195883 0 5.2876086235 0.01178646367 0
          5.2874684334 0.0076304068789 0 5.1299333572 -0.015604767948 0
          5.291809082 0.0084652686492 0 0 0 0
          5.3180794716 -0.02342752181 0 5.2811717987 0.013286745176 0
          5.2836742401 0.0084831053391 0 5.3025698662 -0.01178767439 0
          5.3353362083 0.04353370145 0 5.8619513512 0.22988629341 0
          5.2729053497 0.0070256381296 0 4.1304717064 -0.0090340273455 0
          5.3050088882 0.0032122218981 0 5.3077745438 0.018277736381 0
          5.2927961349 -0.024298526347 0 5.3029112816 0.007291845046 0
          5.2867555618 0.0054533579387 0 5.2865242958 -0.0051433988847 0
          5.2667074203 0.0086147356778 0 5.3007211685 -0.0011034930358 0
          5.2567491531 0.049943096936 0 5.287612915 0.010640717112 0
          5.2803859711 0.013696078211 0 0 0 0
          5.2874121666 -0.034875571728 0 5.2998046875 0.068981155753 0
          5.3074817657 0.0096199503168 0 5.2927865982 0.00736885285 0
          5.2876930237 0.0088014267385 0 5.8067927361 0.29314908385 0
          5.2876429558 0.014117799699 0 5.247300148 -0.02191597037 0
          5.2928266525 0.002811193699 0 5.2653899193 0.020374335349 0
          5.2573308945 0.011965176091 0 5.2661232948 -0.039426568896 0
          5.305267334 0.010990800336 0 5.3070673943 0.048828281462 0
          5.2861185074 0.0093210795894 0 5.2251138687 0.00032744140481 0
          5.2980256081 0.013509320095 0 5.2803125381 0.012688400224 0
          5.2810606956 0.01349402871 0 5.2639341354 0.034850057214 0
          5.303976059 0.0024870501366 0 5.2264323235 0.010392028838 0
          5.286503315 0.0090338271111 0 0 0 0
          5.3415994644 -0.080615907907 0 4.8643059731 0.20185740292 0
          5.3080949783 0.010990749113 0 5.2433772087 0.0095067787915 0
          5.311841011 0.01373310294 0 5.3603000641 0.026910798624 0
          5.2811870575 0.0069713322446 0 5.2814331055 -0.04144763574 0
          5.2907686234 0.0045529427007 0 5.286942482 0.0075023621321 0
          5.3050122261 0.070220373571 0 5.2217760086 0.013127644546 0
          5.2699341774 0.010068604723 0 5.2595896721 0.035983681679 0
          5.3537135124 -0.083585560322 0 5.3082122803 0.0046604378149 0
          5.3188939095 0.015804223716 0 5.2761163712 0.014978541061 0
          5.2849497795 -0.034522071481 0 5.2283258438 0.023727977648 0
          5.2346167564 -0.010904123075 0 5.28586483 0.0058448226191 0
          5.2344107628 0.015070012771 0 5.3059792519 -0.0017758649774 0
          5.27684021 0.0037660009693 0 5.2150287628 0.13389636576 0
          5.3334927559 -0.049701567739 0 0 0 0
          5.2110462189 0.011174929328 0 5.2871174812 0.0054905260913 0
          5.3266820908 0.013974309899 0 5.2992682457 0.068986341357 0
          5.2520251274 0.0059340568259 0 5.3797125816 -0.077089190483 0
          5.286552906 0.0065012155101 0 5.2414765358 0.025715185329 0
          5.2556643486 0.035910304636 0 5.283821106 0.0045785731636 0
          5.2863411903 0.0047362665646 0 5.2244467735 0.013742153533 0
          5.2702832222 -0.0015382700367 0 5.2243151665 0.017980668694 0
          5.2901573181 0.0024134377018 0 4.9811182022 0.057538948953 0
          5.3328795433 -0.0033219305333 0 5.414167881 0.0028120665811 0
          5.3876438141 -0.05222954601 0 5.2602825165 0.022679021582 0
          5.2743630409 0.014398114756 0 5.2293715477 -0.0032790096011 0
          5.2094621658 0.027987251058 0 5.4607729912 0.0037392182276 0
          5.2851476669 0.0035775506403 0 5.3089904785 -0.0053007244132 0
          5.224421978 0.025759706274 0 5.2824015617 0.00015201605856 0
          5.2859740257 0.0042890808545 0 0 0 0
          5.7206144333 -0.28095912933 0 5.5043339729 0.020563175902 0
          5.4386901855 -0.031911544502 0 5.1952834129 0.027531944215 0
          5.2580270767 -0.011918078177 0 5.283249855 0.0035400872584 0
          5.3831114769 -0.044139459729 0 5.2871603966 0.015487574041 0
          5.2160053253 1.894633715e-005 0 5.2629976273 0.0057277488522 0
          5.2086734772 -0.012160866521 0 5.2842173576 0.0007936306647 0
          5.546412468 0.034696884453 0 5.2865905762 0.0039245928638 0
          5.3524641991 -0.012284920551 0 4.9573917389 -0.0076387408189 0
          5.2883372307 0.00058534974232 0 5.3193149567 0.026945509017 0
          5.2817354202 -0.0090913055465 0 5.4428386688 -0.19716538489 0
          5.2687473297 0.0085149053484 0 5.205368042 0.035738967359 0
          5.3485484123 0.067361019552 0 5.3054995537 -0.011611491442 0
          5.5839958191 0.040114343166 0 5.2379674911 -0.02594524622 0
          5.2873487473 0.002540713409 0 5.2852978706 -0.0049721850082 0
          5.2841477394 0.0042735333554 0 4.4576096535 -0.047232069075 0
          0 0 0 5.2388706207 -0.025267137215 0
          5.3931050301 0.078606970608 0 5.2792468071 0.0010666738963 0
          4.2833008766 -0.18235523999 0 5.6008815765 0.024173796177 0
          4.6487765312 -0.035997509956 0 5.1959075928 -0.041579227895 0
          5.202357769 -0.027348289266 0 5.2529439926 0.020047826692 0
          5.2884225845 -0.00060154980747 0 4.7110643387 0.0032412398141 0
          5.2871026993 0.0049606668763 0 5.2202105522 0.019593128935 0
          5.4362177849 0.076489105821 0 5.3700485229 -0.030648060143 0
          5.2823591232 -0.026355158538 0 4.9699130058 -0.021507272497 0
          5.2699141502 0.0041903695092 0 5.2836279869 0.00028565738467 0
          4.625222683 0.029962869361 0 5.2897057533 -0.016123162583 0
          5.2635183334 -0.040039889514 0 5.617536068 0.031000558287 0
          4.5404825211 0.051866836846 0 5.2978005409 -0.01767347008 0
          5.2623047829 -0.044542424381 0 5.4539060593 0.085987716913 0
          5.2916612625 0.0038684352767 0 5.2927894592 -0.0079871825874 0
          5.2815799713 0.0067333774641 0 0 0 0
          0 0 0 0 0 0
          0 0 0 5.2367959023 -0.070446461439 0
          4.4424920082 0.052677709609 0 0 0 0
          5.2727303505 -0.0014341396745 0 5.5413832664 0.050562169403 0
          5.3088545799 0.015527459793 0 5.1681947708 -0.073115289211 0
          5.6636815071 -0.032553497702 0 5.1855759621 0.015345729887 0
          5.1986036301 -0.061477798969 0 0 0 0
          5.3820810318 -0.042899005115 0 5.2959814072 4.8446010624e-005 0
          5.2999892235 -0.023575041443 0 4.3186421394 0.049391806126 0
          5.2881579399 0.0098833721131 0 4.8539023399 -0.036596696824 0
          5.2692899704 -0.06689876318 0 5.2669019699 -0.010141679086 0
          5.2759447098 0.0028041037731 0 0 0 0
          5.2469677925 -0.075911596417 0 5.3023571968 -0.050382804126 0
          0 0 0 5.2880849838 -0.019318429753 0
          4.0328931808 0.040018703789 0 0 0 0
          5.2772188187 0.012756064534 0 5.2994003296 0.0097853187472 0
          5.5109467506 0.083942353725 0 5.3056931496 -0.0088601112366 0
          5.2445397377 -0.093028843403 0 5.4622397423 -0.067479975522 0
          0 0 0 5.2639651299 -0.0016194795026 0
          5.3733344078 -0.075024433434 0 5.1230888367 0.047576785088 0
          4.0667552948 0.072160355747 0 5.1941218376 -0.10170125961 0
          5.9065508842 0.028559245169 0 4.7596492767 -0.065638028085 0
          5.3087334633 0.007389000617 0 0 0 0
          5.2882213593 0.020675590262 0 5.3201479912 -0.030164187774 0
          5.2624998093 -0.012355235405 0 5.2463207245 -0.11967796087 0
          5.2593331337 -0.099359199405 0 5.2646021843 0.0098797762766 0
          5.1346259117 -0.1326417923 0 5.3136281967 -0.089560896158 0
          5.2750415802 -0.02218493633 0 0 0 0
          5.3084039688 0.021199818701 0 3.3520438671 0.037079975009 0
          0 0 0 5.2709755898 0.025665588677 0
          5.2576298714 -0.11068382114 0 5.324868679 -0.0022143984679 0
          5.9941043854 -0.10506925732 0 5.1909608841 0.022332649678 0
          5.2524251938 0.0014871214516 0 5.3371787071 -0.062592245638 0
          5.1596031189 -0.14970672131 0 5.3518671989 -0.075600273907 0
          3.958486557 0.012332092039 0 0 0 0
          5.2336344719 -0.16902211308 0 4.6860356331 -0.058821585029 0
          5.2506408691 0.017141256481 0 5.3271713257 0.023454457521 0
          5.2881574631 0.038880046457 0 5.261548996 -0.022441068664 0