<?xml version="1.0"?>
<VTKFile type="PolyData" version="0.1" byte_order="LittleEndian" compressor="vtkZLibDataCompressor">
  <PolyData>
    <Piece NumberOfPoints="1041" NumberOfVerts="0" NumberOfLines="0" NumberOfStrips="0" NumberOfPolys="1940">
      <PointData>
        <DataArray type="Float32" Name="PRESSURE" format="ascii" RangeMin="-9.0341491699" RangeMax="3.893089056">
          0 0.24038253725 0 0.072662971914 0.16480949521 0
          0.026868164539 0.016554648057 0.10722079873 0.0083206165582 0.069960601628 0
          -0.043890822679 -0.030287861824 -0.038189511746 -0.13689056039 -0.094972968102 0
          -0.2589944303 -0.13984416425 -0.19059319794 -0.28456243873 -0.069312185049 -0.36384993792
          0 -0.37112879753 -0.23776526749 -0.44107297063 -0.1424651891 -0.51143866777
          -0.056733593345 -0.43220674992 0 -0.57334154844 -0.5871835947 -0.40542241931
          -0.31001272798 -0.62384712696 -0.15969516337 -0.64684253931 -0.71712833643 -0.070636145771
          -0.75709879398 0 -0.72493487597 -0.79328095913 -0.65090590715 -0.77038091421
          -0.52207487822 -0.33913680911 -0.76272284985 -0.19509403408 -0.072695232928 -0.80981689692
          -0.70201295614 -0.88670319319 -0.52482521534 -0.77853828669 0 -0.88793671131
          -0.8685939908 -0.3529265821 -0.94408601522 -0.89738374949 -0.17252895236 -0.89907753468
          -0.082791604102 -0.70085626841 -1.0382591486 -0.8896023035 -0.35882428288 -0.52368342876
          -0.93610197306 0 -0.98244410753 -0.9949837327 -0.96483337879 -0.99666619301
          -0.18693198264 -1.0336284637 -1.0158159733 -0.11193157732 -0.51765340567 -0.89033126831
          -0.69906467199 -1.0492976904 -1.0091942549 -1.0165075064 0 -1.0376420021
          -0.34013107419 -1.0681251287 -1.0442094803 -1.0232232809 -1.0239748955 -1.0538150072
          -1.0923712254 -0.046565737575 -0.18385496736 -0.48706638813 -0.62047988176 -0.94857704639
          -0.82894259691 -1.084586978 -1.0756446123 -1.039804101 -1.0971388817 0
          -1.0674990416 -1.1349322796 -1.0084398985 -0.37179726362 -1.0513707399 -1.2492091656
          -0.12549613416 -0.94546741247 -0.99786150455 -0.8325933814 -0.66366910934 -1.0438435078
          -1.0488717556 -1.1756232977 -1.027644515 -0.20814135671 -1.2889775038 0
          -1.2338360548 -1.0089315176 -0.5535877943 -1.3737901449 -1.0584264994 -0.090480998158
          -1.0120651722 -1.0484422445 -0.99216157198 -1.0804212093 -0.98682039976 -0.42792621255
          -0.93080246449 -1.0367295742 -1.3221400976 0 -1.1414217949 -1.3074532747
          -0.2062176764 -0.83038669825 -1.099380374 -1.0528172255 -0.98958075047 -0.59424614906
          -1.0954340696 -1.5519940853 -0.066406309605 -1.0781873465 -0.41188097 -1.0362786055
          -1.0206719637 -1.327837348 -1.0716483593 -1.5574922562 0 -1.1025326252
          -1.1200238466 -0.18926233053 -1.25992167 -1.441519618 -1.185357213 -1.883972168
          -0.91595095396 -1.5358315706 -0.057234492153 -1.0807236433 -1.1995418072 -0.33751758933
          -1.2529627085 -0.62687951326 -1.496718049 -1.1120843887 -1.1283620596 -1.6854221821
          0 -1.4440362453 -1.1238882542 -1.1406213045 -1.2231422663 -1.6794313192
          -1.3000314236 -0.20252427459 -0.85207259655 -1.6843903065 -1.4309824705 -0.072403937578
          -1.1635681391 -1.699000001 -1.316159606 -0.45202305913 -1.0372328758 -1.1025412083
          -1.4493652582 -1.7008039951 -1.1150512695 -0.72211533785 -1.1883137226 -1.7964938879
          0 -1.7252933979 -1.1524972916 -1.6727545261 -1.1487668753 -1.8537921906
          -1.4639408588 -0.16542312503 -1.2262899876 -1.2903214693 -1.8780599833 -0.91593486071
          -1.6726665497 -1.9020558596 -0.047786854208 -1.0906287432 -1.1676706076 -1.1142969131
          -0.28362834454 -1.0679830313 -0.54243320227 -1.417986393 -1.9121079445 -1.1458488703
          -1.674418807 -1.8444656134 0 -1.7377028465 -0.75493884087 -1.3260484934
          -1.1410126686 -1.964189291 -1.8913232088 -0.084169253707 -1.270168066 -1.1483739614
          -2.0408496857 -1.6183259487 -1.4283928871 -2.0698945522 -1.8939951658 -0.95166552067
          -1.3269093037 -1.8501051664 -1.0779473782 -0.4328006506 -0.041920091957 -1.1703406572
          -1.1165361404 -2.0773234367 -1.0496783257 -0.59885621071 -1.5961366892 -1.2216273546
          -1.9886478186 -1.8314148188 -1.4568122625 -1.8702853918 0 -0.75323575735
          -0.21577998996 -1.1215769053 -2.0850923061 -1.3619302511 -0.092081315815 -1.1617571115
          -2.216865778 -2.1617944241 -2.1871330738 -1.7848212719 -0.90942203999 -1.609868288
          -1.1197508574 -2.0160233974 -1.5135781765 -0.38185051084 -2.0205554962 0.03663084656
          -1.2218301296 -1.1744292974 -0.59686595201 -1.3512476683 -1.0359188318 -2.2189676762
          -1.7663646936 -1.9458130598 -1.6737679243 0 -2.0144643784 -2.0915436745
          -0.77640497684 -1.5350083113 0.086660720408 -1.0904436111 -0.013175101951 -2.2529759407
          -2.257594347 -1.2142635584 -1.8964906931 -0.21008746326 -1.8158137798 -1.1819658279
          -0.91773736477 -1.2124365568 -2.1394777298 -2.0990176201 -1.3610972166 -1.7404652834
          -0.46186888218 -2.1010203362 -2.1821780205 -1.1570401192 -0.66585308313 -1.5455629826
          -2.1847147942 -1.0626136065 -1.9133099318 -2.0048384666 -1.8996664286 0
          -2.0495107174 0.11292282492 -0.0039233695716 -2.10658741 -0.85314840078 -0.047442700714
          -1.7754904032 -1.1197608709 -1.2305796146 -2.2264738083 -1.2068940401 -1.3268777132
          -2.2147300243 -0.26879197359 -1.4077641964 -1.966912508 -2.055762291 -0.95626974106
          -1.9869560003 -2.0939335823 -2.1508712769 -1.5572868586 -1.9693292379 -0.49958357215
          -2.1501219273 -2.0885186195 -0.7069529891 -1.7925126553 -1.1201081276 -2.0351784229
          -2.0801329613 -2.0163285732 -1.2495679855 -1.9637571573 -2.0610616207 -1.3108699322
          -0.86783874035 -2.0111408234 -1.5813804865 -1.5392247438 -1.1611465216 -2.1068146229
          -1.3869671822 -2.0500915051 -1.9623645544 -0.97828441858 -2.1033821106 -1.9670279026
          -1.801807642 -2.0194022655 -2.0564315319 -2.1508603096 -2.0062212944 -1.9813187122
          -2.0160598755 -1.1307044029 -2.0300734043 -1.2469394207 -1.9938627481 -2.1817011833
          -1.9824512005 -1.9157193899 -1.4878282547 -1.6750093699 -2.1652226448 -1.8980926275
          -1.9761983156 -1.8111271858 -1.4105798006 -1.0810543299 -1.8527904749 -1.9736448526
          -2.229170084 -1.9467726946 -2.1091547012 -2.0104959011 -1.8368238211 -1.855718255
          -1.9265816212 -1.5403567553 -1.3517228365 -2.164596796 -1.8274017572 -1.8064370155
          -1.9097536802 -2.0087537766 -1.8791561127 -1.6268758774 -1.8469711542 -1.7833788395
          -2.2174465656 -2.2762274742 -1.7336089611 -1.4491519928 -1.7596973181 -1.9909483194
          -1.7490171194 -1.8032413721 -1.8733198643 -1.887681365 -1.8175741434 -2.0876810551
          -2.1296896935 -1.7511882782 -1.6496828794 -1.536121726 -1.7693454027 -2.0346319675
          -2.238288641 -1.7899897099 -1.6959000826 -1.646689415 -1.9187685251 -1.9344203472
          -1.7241960764 -1.7575314045 -1.7641906738 -2.2309012413 -2.041667223 -1.7131767273
          -1.7850623131 -1.5824590921 -1.763948679 -1.7945232391 -2.1296329498 -1.6664736271
          -1.9621498585 -1.7043976784 -1.5640040636 -1.806448698 -1.8924206495 -2.1290335655
          -1.6763333082 -2.1634259224 -1.8003271818 -1.7166930437 -1.561617732 -1.699084878
          -1.8052077293 -1.4670064449 -1.6009145975 -1.9962059259 -1.5043278933 -1.6343374252
          -2.1162705421 -1.7084629536 -1.8931965828 -1.9739687443 -1.6680281162 -1.6154683828
          -1.8016893864 -1.8345233202 -1.5572171211 -1.6175731421 -2.1016564369 -1.5057125092
          -1.6973108053 -1.5294518471 -1.629207015 -1.6312291622 -1.7508357763 -2.0173561573
          -1.4852267504 -1.5940992832 -1.5553159714 -1.6912059784 -1.5590753555 -1.9834709167
          -1.5953834057 -1.5881053209 -1.9272487164 -1.7899249792 -1.9940979481 -1.5361520052
          -1.6169348955 -1.8753569126 -1.6037644148 -1.4693598747 -1.9922190905 -1.5272455215
          -1.667920351 -1.6624062061 -1.5526430607 -1.5682183504 -1.9940594435 -1.6421210766
          -1.6399127245 -1.7191048861 -1.6371685266 -1.9433349371 -1.9145268202 -1.735881567
          -1.4824085236 -1.4089882374 -1.8759967089 -1.7536501884 -1.6024131775 -1.6871042252
          -1.6204890013 -1.986415863 -1.7397034168 -1.7914003134 -1.7566514015 -1.7238790989
          -1.3978037834 -1.5728421211 -1.9298152924 -1.8834248781 -1.454267621 -1.7436331511
          -1.813619256 -1.8169503212 -1.7437816858 -1.8464361429 -1.9206244946 -1.5514792204
          -1.9205616713 -1.4939650297 -1.3471546173 -1.9969369173 -1.7246137857 -1.6912899017
          -1.8548961878 -1.9543722868 -2.1403329372 -1.8496153355 -1.4106497765 -1.708922267
          -1.8765180111 -1.4347256422 -1.7091040611 -1.8126275539 -2.1134810448 -1.9929949045
          -1.9483929873 -1.9555711746 -2.1293876171 -1.8527803421 -2.2973022461 -1.6446998119
          -2.0314617157 -1.347435832 -1.9322667122 -1.4757789373 -1.9501008987 -1.59385252
          -1.9579712152 -2.3569252491 -1.5285416842 -1.6744858027 -2.111726284 -1.4401410818
          -1.9432445765 -1.689249754 -2.2065877914 -2.0729236603 -2.1065216064 -2.2842040062
          -2.3549370766 -1.811776042 -1.4731030464 -2.4190199375 -1.5223540068 -2.1954360008
          -2.0947310925 -1.6037050486 -2.4045929909 -2.2265050411 -1.6453229189 -1.9978210926
          -2.1393826008 -2.3176708221 -2.2206764221 -1.4643720388 -2.2041666508 -1.7383159399
          -2.189653635 -2.3076183796 -2.3521230221 -2.2705214024 -2.3528139591 -2.0139861107
          -1.6036994457 -1.5674183369 -2.3440673351 -1.5245453119 -2.0409960747 -1.547088027
          -2.4301447868 -2.308349371 -1.9894189835 -2.2793364525 -2.085767746 -2.1436498165
          -2.3675765991 -2.2357513905 -2.2047791481 -1.6208913326 -2.3377609253 -1.8587802649
          -1.5701639652 -2.242733717 -2.4335818291 -2.2258708477 -1.6011266708 -2.2191357613
          -1.5475054979 -2.1849956512 -2.2295815945 -1.7996097803 -2.0683655739 -2.2557706833
          -1.9932522774 -2.0711395741 -2.1070330143 -2.4743099213 -2.1785590649 -2.086922884
          -2.3320014477 -2.1224236488 -2.1665334702 -1.7133618593 -1.6803810596 -2.4071264267
          -2.0320680141 -2.088684082 -1.5986009836 -2.3869547844 -2.12500453 -2.1578831673
          -2.2883124352 -1.988915801 -2.1268906593 -2.0447697639 -1.9347654581 -1.9438351393
          -2.02415061 -2.202684164 -2.3981993198 -2.0216913223 -2.1478176117 -1.7791999578
          -2.0130975246 -1.8614634275 -1.6885969639 -2.1426217556 -2.2386140823 -2.1424031258
          -1.9761160612 -2.3703930378 -2.0317630768 -2.1506917477 -2.2488007545 -2.0750336647
          -2.0237491131 -2.140958786 -2.2904071808 -1.9798882008 -2.0003545284 -2.0127260685
          -2.0239179134 -2.1555840969 -1.9312398434 -2.171495676 -2.276661396 -2.0249099731
          -1.8165974617 -2.0192558765 -2.1242682934 -2.1791405678 -2.1106216908 -2.159342289
          -2.2644867897 -2.1408734322 -2.1276466846 -2.0805542469 -2.1571834087 -2.2058548927
          -2.0270233154 -2.1414415836 -2.2445046902 -2.1142356396 -2.0721206665 -1.9455138445
          -2.1125054359 -2.0459489822 -2.1285300255 -2.1475245953 -2.2091066837 -2.110070467
          -2.2809913158 -2.0651140213 -2.1733551025 -2.1932044029 -2.1702992916 -2.1873600483
          -2.1717221737 -2.1823432446 -2.0486032963 -2.0725843906 -2.1393170357 -2.3154523373
          -2.2485156059 -2.1532182693 -2.3029561043 -2.194861412 -2.1912269592 -2.123352766
          -2.2078988552 -2.1965763569 -2.2687916756 -2.0782227516 -2.2672281265 -2.0395159721
          -2.3736455441 -2.4965450764 -2.2189970016 -2.1324572563 -2.1784617901 -2.3377580643
          -2.1078000069 -2.0630261898 -2.1788473129 -2.5513477325 -2.3300819397 -2.5670514107
          -2.2947010994 -2.1310772896 -2.5501549244 -2.1078381538 -2.433403492 -2.3456933498
          -2.0391774178 -2.4612054825 -2.7784678936 -2.3084688187 -2.4640276432 -2.7456235886
          -2.243991375 -2.6244752407 -2.141340971 -2.4593992233 -2.2798535824 -2.0936903954
          -2.8479082584 -2.463966608 -2.8982124329 -2.0848987103 -2.9253237247 -2.779538393
          -2.4419412613 -2.7012684345 -2.117841959 -2.64209342 -2.100471735 -2.10293293
          -3.0940561295 -2.2319118977 -3.1547911167 -2.6241900921 -2.0717785358 -2.4524171352
          -3.1395010948 -2.597669363 -3.1455097198 -3.2715268135 -2.6103804111 -2.4339063168
          -3.1657807827 -2.2500784397 -2.6062922478 -3.4598371983 -3.015001297 -2.1142034531
          -2.1981687546 -2.2343971729 -2.1516048908 -2.8227117062 -3.3364560604 -3.5306222439
          -2.4556033611 -2.6371622086 -2.7747275829 -2.7765538692 -3.7549202442 -2.7756905556
          -3.3375606537 -3.7933325768 -2.7047708035 -3.5007529259 -3.5167779922 -2.3061280251
          -2.1914346218 -2.3726894855 -2.8627910614 -2.4951608181 -3.2423803806 -3.4168987274
          -2.655134201 -3.7410051823 -3.0931856632 -2.966127634 -2.9626994133 -2.90904212
          -3.9124786854 -3.4782280922 -3.8607907295 -2.9762117863 -3.3039960861 -2.6177256107
          -2.3578956127 -2.5472352505 -3.1711895466 -3.664855957 -3.1296916008 -2.8721790314
          -3.3546860218 -3.1983742714 -3.4306497574 -3.3795251846 -3.1888477802 -3.1592795849
          -3.7730844021 -3.4937489033 -3.0536391735 -2.8452727795 -2.6255779266 -3.649364233
          -3.4993093014 -3.0391218662 -3.1282293797 -2.9912102222 -3.4588701725 -3.1899664402
          -3.6836884022 -3.24091959 -2.785179615 -3.4762692451 -2.7913939953 -3.8267772198
          -3.0390927792 -2.9024302959 -3.4427320957 -3.6904072762 -3.0747785568 -3.1180574894
          -2.9287247658 -3.7275178432 -3.1559238434 -2.9844241142 -2.5935223103 -3.2759785652
          -2.4672210217 -2.407409668 -3.0397045612 -3.2382049561 -3.9597418308 -2.1236963272
          -2.2460427284 -2.8354599476 -3.4596912861 -2.3083667755 -3.1840405464 -3.9729537964
          -2.4605519772 -3.3468132019 -3.5453882217 -2.5652115345 -2.7316937447 -2.1051166058
          -3.5239026546 -3.7728002071 -2.8349432945 -2.2181096077 -1.7979884148 -2.9760785103
          -1.6844658852 -3.5204541683 -1.7548551559 -1.8021432161 -3.3353235722 -1.8406136036
          -2.9722025394 -3.5532646179 -3.4120166302 -1.9723203182 -2.061208725 -3.4336700439
          -2.8781628609 -1.7327722311 -2.1827425957 -1.552738905 -2.4737858772 -2.8374252319
          -1.8168183565 -1.5048524141 -1.5846039057 -2.5250282288 -1.824811697 -1.5813649893
          -3.3059401512 -2.9932262897 -2.3709669113 -2.0844268799 -3.2231397629 -2.0505490303
          -2.9724080563 -1.8434115648 -1.5725874901 -2.0726907253 -2.1749310493 -1.5712610483
          -1.9957588911 -1.6513402462 -2.0631058216 -1.8506785631 -2.0247912407 -3.0586311817
          -2.2742371559 -1.6252305508 -2.7557690144 -2.4739596844 -1.8821884394 -2.0563640594
          -2.4098982811 -2.1132376194 -1.8750371933 -2.1590120792 -2.1068897247 -1.6383538246
          -1.6787508726 -2.0487656593 -2.0140547752 -1.6970527172 -1.7188057899 -1.6769311428
          -2.0304775238 -1.7297827005 -2.5863165855 -2.1004223824 -1.5824381113 -2.2059459686
          -2.9900150299 -1.838739872 -2.0254900455 -1.7704490423 -2.9492750168 -1.8518145084
          -2.1451349258 -2.3042962551 -1.4538638592 -1.7231739759 -1.6016222239 -2.5624368191
          -1.7820302248 -1.3249877691 -1.738394022 -1.5519846678 -2.0706105232 -0.9406516552
          -1.7911911011 -2.2889654636 -1.490993619 -1.7015714645 -1.4951711893 -4.7263917923
          -1.5529904366 -2.0840814114 -1.8970348835 -4.7483277321 -1.6008951664 -2.9322798252
          0.4291510582 -1.7475012541 -1.6515589952 -1.771828413 -1.794626236 -1.5633429289
          -2.9608538151 -1.6884001493 -0.36922046542 0.7092654705 0.58994752169 -1.5698918104
          -4.6255998611 -1.514751792 -2.0736687183 -1.5823748112 -9.0341491699 -4.904882431
          -4.7055892944 -1.6789665222 1.9313269854 -4.6855006218 3.893089056 -1.6801097393
          -1.5555481911 -1.6811580658 1.9448714256 -1.6273465157 -4.8565607071 -0.84725409746
          -1.7255607843 -8.9967746735 -1.5391433239 -4.5939359665 -1.6211254597 -1.7248049974
          -1.7398658991 0.6238296628 -0.3487842679 -1.7924753428 -1.5340830088 -1.7325989008
          -1.8058325052 -1.7905646563 -1.7615817785
        </DataArray>
        <DataArray type="Float32" Name="VELOCITY" NumberOfComponents="3" ComponentName0="X-VELOCITY" ComponentName1="Y-VELOCITY" ComponentName2="Z-VELOCITY" format="ascii" RangeMin="0" RangeMax="8.1140683416">
          0 0 0 0 0 0
          2.8144164085 -0.0041174846701 0 3.7263767719 0.075957648456 0
          2.7062637806 0.11413610727 0 4.0741062164 0.067951023579 0
          0 0 0 3.8432681561 -0.1252464354 0
          2.985761404 0.023757917807 0 3.6632192135 -0.061198212206 0
          0 0 0 3.9963276386 -0.15103925765 0
          3.9124503136 -0.13561992347 0 4.2115941048 -0.14232471585 0
          2.9138758183 -0.013538915664 0 3.5773262978 -0.092253752053 0
          0 0 0 4.5196933746 -0.15299774706 0
          3.3675935268 -0.11118133366 0 4.513024807 -0.18771058321 0
          4.1294937134 -0.1996012181 0 2.7971553802 -0.040737375617 0
          4.8925685883 -0.15730687976 0 0 0 0
          5.2899980545 -0.15107993782 0 3.7044100761 -0.19965738058 0
          4.842965126 -0.19425538182 0 3.2926139832 -0.13077037036 0
          5.4053754807 -0.17865385115 0 2.7498471737 -0.043641839176 0
          5.7003641129 -0.14332441986 0 4.6749315262 -0.21007801592 0
          5.9686031342 -0.096697114408 0 0 0 0
          4.2020101547 -0.20097760856 0 5.3189091682 -0.22689549625 0
          5.6306028366 -0.23388895392 0 3.6177027225 -0.17690421641 0
          5.9504551888 -0.21286913753 0 3.1922135353 -0.12673453987 0
          2.6682770252 -0.031099181622 0 6.2132897377 -0.1427821666 0
          0 0 0 6.3825025558 -0.072136625648 0
          5.0034680367 -0.21179464459 0 4.2909011841 -0.17443525791 0
          5.5051054955 -0.23086875677 0 3.6471312046 -0.17104412615 0
          5.9279179573 -0.26282787323 0 6.234629631 -0.27246496081 0
          3.133241415 -0.11668474227 0 6.436173439 -0.21832245588 0
          6.5276031494 -0.12122376263 0 2.5741610527 -0.012501070276 0
          6.1174850464 -0.23498356342 0 3.5615310669 -0.1462328583 0
          6.4341125488 -0.28691250086 0 0 0 0
          6.6048130989 -0.036492336541 0 4.3771018982 -0.1391826123 0
          5.8608736992 -0.17489387095 0 6.6243429184 -0.27040433884 0
          5.317117691 -0.13465540111 0 3.0085821152 -0.11367192864 0
          6.6936440468 -0.17823168635 0 2.3226184845 -0.017650386319 0
          6.688513279 -0.076578877866 0 6.6449174881 -0.21923860908 0
          5.2063035965 -0.081504099071 0 6.4014253616 -0.13804762065 0
          6.8532862663 -0.20752818882 0 6.8419075012 -0.23236481845 0
          0 0 0 6.6736364365 -0.005195082631 0
          3.5955483913 -0.11723005772 0 6.201300621 -0.060964912176 0
          2.9549472332 -0.092071406543 0 4.4848217964 -0.09415435791 0
          6.7990751266 -0.09735288471 0 5.9244308472 -0.020562367514 0
          2.2993509769 -0.040446221828 0 6.7272191048 -0.009007230401 0
          7.0695271492 -0.14912283421 0 6.9070982933 -0.084367588162 0
          7.0690245628 -0.13484227657 0 5.5756316185 0.0033152550459 0
          6.7548832893 0.011612516828 0 0 0 0
          6.7121734619 0.0140011888 0 3.5003960133 -0.10664691776 0
          6.9814677238 -0.02268849127 0 6.5606613159 0.078265033662 0
          2.9222733974 -0.092705331743 0 5.2385654449 -0.015178121626 0
          4.3291273117 -0.082382023335 0 6.2855029106 0.08956669271 0
          2.2211358547 -0.03276000917 0 6.7582821846 0.055608641356 0
          6.8454937935 0.082997091115 0 7.1581707001 0.03098064661 0
          7.3006868362 -0.024078827351 0 7.1771707535 0.043518673629 0
          7.3178792 -0.013915391639 0 3.6045072079 -0.11497934163 0
          6.0156502724 0.078138761222 0 7.014333725 0.13683970273 0
          0 0 0 6.7003750801 0.057095862925 0
          6.8239965439 0.1775919348 0 2.884472847 -0.089052885771 0
          5.4814887047 -0.0061615528539 0 6.9770307541 0.1937777102 0
          6.6631121635 0.16659870744 0 2.1573238373 -0.055380731821 0
          6.6754193306 0.12513256073 0 7.3847894669 0.025648755953 0
          7.2414126396 0.10158140212 0 7.3964166641 0.030982322991 0
          7.1836657524 0.15706111491 0 4.6936340332 -0.069981902838 0
          6.374956131 0.11062111706 0 3.5771670341 -0.11410422623 0
          7.0896835327 0.1816932261 0 6.7153835297 0.23600880802 0
          0 0 0 6.5869908333 0.080320104957 0
          2.8944151402 -0.070866532624 0 6.96534729 0.21045462787 0
          6.8519377708 0.29182851315 0 2.2763068676 -0.048951577395 0
          5.9426140785 -0.017141859978 0 6.5260548592 0.17392472923 0
          7.3232178688 -0.010897694156 0 6.8903479576 0.16176229715 0
          7.3362746239 -0.030196495354 0 4.4788608551 -0.12138677388 0
          7.1842079163 0.058178048581 0 6.6297330856 0.32509511709 0
          7.1117568016 0.093316487968 0 7.0412693024 0.13318519294 0
          0 0 0 6.3817152977 0.10934665054 0
          5.4060692787 -0.10215701163 0 3.1827948093 -0.11185844988 0
          6.4058456421 0.28454059362 0 6.7771854401 0.2599401772 0
          6.9696388245 0.13934512436 0 6.850897789 0.062474701554 0
          7.1750631332 -0.075888328254 0 6.487159729 0.3519898653 0
          7.2134518623 -0.12077829987 0 2.1296992302 -0.067102484405 0
          6.2437872887 0.19003023207 0 6.3236093521 -0.07811896503 0
          6.2271780968 0.34717416763 0 7.0346550941 -0.015809478238 0
          6.6858491898 0.14152100682 0 4.78602314 -0.18387469649 0
          6.9262495041 0.063243716955 0 0 0 0
          6.0235319138 0.13588550687 0 6.9063763618 -0.041522625834 0
          6.9340806007 0.048965632915 0 6.0377817154 0.27530694008 0
          6.0215015411 -0.1560010314 0 2.9203231335 -0.058654230088 0
          6.795923233 -0.12634916604 0 1.958501339 -0.051611609757 0
          6.2060008049 0.27117392421 0 3.6542005539 -0.17903186381 0
          5.7818980217 0.18731346726 0 7.0893592834 -0.19390073419 0
          6.9465661049 -0.10762255639 0 5.782459259 0.31180745363 0
          6.5484929085 -0.19584007561 0 5.8485274315 0.33751991391 0
          4.682446003 -0.19192424417 0 6.9301581383 -0.058090474457 0
          6.8148021698 -0.17841687799 0 0 0 0
          5.4370684624 0.17548231781 0 5.6227879524 -0.19794440269 0
          6.2260189056 0.079811744392 0 6.8595657349 0.011628794484 0
          6.9043979645 -0.051653858274 0 2.6951708794 0.043110877275 0
          6.9043359756 -0.23551733792 0 5.3655538559 0.24267873168 0
          5.6252937317 0.27403154969 0 2.9989917278 -0.17045006156 0
          6.2791743279 -0.25814411044 0 5.1158533096 0.20464900136 0
          6.3256840706 -0.063812755048 0 4.2331237793 -0.18092387915 0
          7.0018463135 -0.20619320869 0 5.1945281029 0.28181257844 0
          5.6069169044 0.17900313437 0 6.8266510963 -0.20479333401 0
          6.703209877 -0.29701644182 0 5.2314944267 -0.22348387539 0
          6.9592633247 -0.15463930368 0 5.1569962502 0.27349856496 0
          6.9053459167 -0.0023524560966 0 0 0 0
          4.5893273354 0.20918174088 0 2.173473835 0.070957906544 0
          6.4169616699 -0.13626924157 0 5.9539203644 -0.25885912776 0
          5.702287674 0.064151629806 0 2.5396945477 -0.14799319208 0
          6.9951748848 -0.29279839993 0 4.4022512436 0.22621265054 0
          6.9115257263 0.062885001302 0 7.002120018 -0.066201433539 0
          3.6143724918 -0.13532540202 0 4.9956121445 0.21841435134 0
          6.4725871086 -0.30121198297 0 4.7224760056 -0.1873935312 0
          4.1551890373 0.16925399005 0 6.4930930138 -0.12729050219 0
          5.8043241501 -0.0071734939702 0 6.7895755768 -0.1142649129 0
          4.0769519806 0.26002541184 0 5.0503091812 0.15462584794 0
          4.2564764023 0.24559541047 0 7.1477379799 -0.1927716285 0
          5.6057567596 -0.21494412422 0 6.9319624901 -0.015361777507 0
          6.8855414391 -0.30785763264 0 2.2182862759 -0.044932000339 0
          3.9464759827 0.16646137834 0 0 0 0
          4.246863842 0.23317363858 0 7.0597567558 0.099905379117 0
          5.9586558342 -0.039404638112 0 3.032746315 -0.10857996345 0
          6.1949291229 -0.24225796759 0 3.9339351654 0.17968375981 0
          6.9435853958 0.13514311612 0 5.0740246773 0.097297310829 0
          4.147714138 -0.13782998919 0 7.1804695129 -0.25004199147 0
          7.2053956985 -0.00074801407754 0 5.1894955635 -0.15314242244 0
          6.6904363632 -0.25745606422 0 4.1101236343 0.18101043999 0
          7.001537323 0.2282231003 0 2.097369194 -0.033455640078 0
          6.273982048 -0.063372805715 0 3.6665718555 0.22670124471 0
          3.8433811665 0.16666515172 0 5.1956195831 0.057567663491 0
          6.5721564293 0.00861611031 0 5.9085884094 -0.16207231581 0
          4.1652469635 0.15232881904 0 3.5711584091 0.20489050448 0
          7.3755102158 -0.10047038645 0 6.8271970749 0.12639838457 0
          2.2332322598 -0.087784543633 0 7.1071882248 -0.2215283215 0
          7.1680560112 0.20767259598 0 0 0 0
          4.0218653679 0.0016363763716 0 3.4956934452 0.18395081162 0
          3.6113493443 0.11980266869 0 4.2554688454 0.11641660333 0
          6.4416890144 -0.15909431875 0 6.9027261734 0.27352422476 0
          3.6318264008 0.097156241536 0 5.3936605453 0.017760111019 0
          4.7426786423 -0.083717077971 0 3.4907381535 -0.09606795013 0
          5.6434907913 -0.093443207443 0 7.4178938866 -0.13509008288 0
          3.4934449196 0.17351730168 0 7.3983697891 0.10108431429 0
          6.0209860802 0.017242623493 0 1.9823331833 -0.043617431074 0
          7.0195407867 0.32537460327 0 3.4277243614 0.12473329157 0
          6.9739518166 -0.13204334676 0 3.6663663387 -0.030184835196 0
          6.3221225739 0.12034699321 0 4.2452669144 0.091412298381 0
          3.36364007 0.13904458284 0 6.6293525696 0.23280100524 0
          3.4700305462 0.15783731639 0 6.1435527802 -0.051263764501 0
          7.5796518326 -0.0013058196055 0 7.3372683525 -0.099307358265 0
          7.2198367119 0.26058501005 0 3.0707833767 0.04018452391 0
          0 0 0 2.257720232 -0.07507186383 0
          3.3010418415 0.14356999099 0 6.7403888702 0.32970297337 0
          2.7765901089 -0.097439751029 0 3.486746788 0.12894891202 0
          2.9369642735 0.013065252453 0 5.7061591148 0.0095607619733 0
          4.6687226295 -0.014831745066 0 5.0121502876 0.069108858705 0
          7.6175642014 -0.031234215945 0 2.8969335556 0.049844209105 0
          7.4616465569 0.13203626871 0 4.205827713 0.082758627832 0
          3.2302267551 0.13123859465 0 5.6276640892 0.099885202944 0
          6.8521175385 0.0068631507456 0 1.9183439016 -0.029008742422 0
          6.0343694687 0.18978844583 0 6.9103565216 0.32420548797 0
          2.7563986778 0.041470829397 0 7.2286319733 -0.0049085058272 0
          3.4172408581 -0.023450229317 0 3.5078186989 0.12656415999 0
          2.6417520046 0.051078401506 0 6.2925992012 0.27090737224 0
          6.4733362198 0.077867798507 0 3.1267545223 0.12358205765 0
          7.6458072662 0.024453064427 0 7.5367703438 0.0072885397822 0
          7.137137413 0.22251577675 0 0 0 0
          0 0 0 0 0 0
          0 0 0 2.2719688416 -0.050154417753 0
          2.5306687355 0.041230872273 0 0 0 0
          6.481069088 0.30980330706 0 3.1000401974 0.10490631312 0
          3.8865208626 0.1030080691 0 5.5413575172 0.09719132632 0
          3.4743666649 0.097136706114 0 4.4999442101 0.13827125728 0
          4.52526474 0.047932665795 0 0 0 0
          5.2311301231 0.14932303131 0 7.6807589531 0.00072278943844 0
          7.3265423775 0.086453795433 0 2.4217503071 0.037561066449 0
          7.3839502335 0.077442891896 0 1.8309098482 -0.022491468117 0
          3.4071230888 0.022065998986 0 5.6407575607 0.22459214926 0
          6.700902462 0.24613288045 0 0 0 0
          6.2130880356 0.14913830161 0 6.9783239365 0.17037940025 0
          0 0 0 5.9515709877 0.25643575191 0
          2.2196393013 0.031344160438 0 0 0 0
          6.9486804008 0.12117112428 0 7.5726165771 -0.029271434993 0
          2.935189724 0.098113052547 0 7.599313736 0.044017795473 0
          2.3103153706 -0.026525033638 0 3.6021704674 0.11742770672 0
          0 0 0 6.1939997673 0.23536296189 0
          4.8715777397 0.15909780562 0 3.9649760723 0.18594576418 0
          2.2076699734 0.03412552923 0 4.4134774208 0.09794781357 0
          3.1200222969 0.10903730989 0 1.7800736427 -0.025314977393 0
          7.5979137421 -0.046112313867 0 0 0 0
          7.1703438759 -0.029589382932 0 7.4119410515 0.12731608748 0
          5.1968007088 0.2165414989 0 6.2065758705 0.20676934719 0
          3.5474243164 0.051676794887 0 6.4572916031 0.12754043937 0
          5.4814171791 0.1636518985 0 6.8558554649 0.24887402356 0
          5.5675148964 0.19134895504 0 0 0 0
          7.4037718773 -0.11300493777 0 1.800047636 0.030781237409 0
          0 0 0 6.7582855225 -0.011639313772 0
          2.377407074 -0.0094322795048 0 7.5363416672 -0.0045934403315 0
          3.1281342506 0.077708527446 0 3.4854054451 0.17846249044 0
          5.871532917 0.13378447294 0 7.1989741325 0.20386485755 0
          4.6416296959 0.12127237022 0 4.2325139046 0.15005895495 0
          2.0731823444 0.034343931824 0 0 0 0
          6.1561045647 0.22517207265 0 1.7640146017 -0.015436873771 0
          6.1635212898 0.036497473717 0 7.4343557358 -0.13000804186 0
          6.9900050163 -0.14348623157 0 4.6919870377 0.16013395786 0
          7.3837637901 0.07356261462 0 6.6447110176 0.25129413605 0
          3.6243209839 0.070600673556 0 2.1535241604 0.042681962252 0
          0 0 0 5.1442241669 0.10583970696 0