# vtk DataFile Version 3.0
vtk output
ASCII
DATASET POLYDATA
POINTS 1071 float
40 10 0 39 10 0 40 9 0 
39 9 0 40 8 0 38 10 0 
38 9 0 39 8 0 38 8 0 
40 7 0 37 10 0 37 9 0 
39 7 0 38 7 0 37 8 0 
40 6 0 36 10 0 36 9 0 
39 6 0 37 7 0 36 8 0 
38 6 0 36 7 0 40 5 0 
35 10 0 37 6 0 39 5 0 
35 9 0 35 8 0 38 5 0 
36 6 0 35 7 0 37 5 0 
34 10 0 40 4 0 39 4 0 
34 9 0 38 4 0 34 8 0 
36 5 0 35 6 0 34 7 0 
37 4 0 33 10 0 40 3 0 
35 5 0 33 9 0 39 3 0 
36 4 0 34 6 0 33 8 0 
38 3 0 33 7 0 37 3 0 
35 4 0 34 5 0 40 2 0 
32 10 0 36 3 0 32 9 0 
39 2 0 33 6 0 32 8 0 
38 2 0 34 4 0 37 2 0 
32 7 0 33 5 0 35 3 0 
36 2 0 32 6 0 40 1 0 
31 10 0 31 9 0 39 1 0 
34 3 0 31 8 0 33 4 0 
38 1 0 35 2 0 32 5 0 
31 7 0 37 1 0 31 6 0 
36 1 0 33 3 0 40 0 0 
34 2 0 30 10 0 32 4 0 
30 9 0 39 0 0 30 8 0 
38 0 0 31 5 0 35 1 0 
30 7 0 37 0 0 33 2 0 
32 3 0 36 0 0 30 6 0 
31 4 0 34 1 0 29 10 0 
40 -1 0 29 9 0 39 -1 0 
29 8 0 30 5 0 38 -1 0 
35 -2.22045e-16 0 32 2 0 37 -1 0 
31 3 0 29 7 0 33 1 0 
34 -4.44089e-16 0 30 4 0 36 -1 0 
29 6 0 40 -2 0 28 10 0 
39 -2 0 31 2 0 28 9 0 
32 1 0 29 5 0 35 -1 0 
38 -2 0 28 8 0 30 3 0 
33 -8.88178e-16 0 37 -2 0 28 7 0 
29 4 0 34 -1 0 36 -2 0 
28 6 0 31 1 0 30 2 0 
32 -8.88178e-16 0 40 -3 0 27 10 0 
35 -2 0 28 5 0 29 3 0 
39 -3 0 27 9 0 33 -1 0 
27 8 0 38 -3 0 37 -3 0 
27 7 0 34 -2 0 28 4 0 
31 -6.66134e-16 0 30 1 0 29 2 0 
27 6 0 32 -1 0 36 -3 0 
28 3 0 33 -2 0 27 5 0 
35 -3 0 40 -4 0 26 10 0 
26 9 0 39 -4 0 30 -7.77156e-16 0 
38 -4 0 26 8 0 31 -1 0 
29 1 0 37 -4 0 34 -3 0 
26 7 0 27 4 0 32 -2 0 
28 2 0 36 -4 0 26 6 0 
27 3 0 33 -3 0 30 -1 0 
26 5 0 35 -4 0 29 -8.88178e-16 0 
31 -2 0 40 -5 0 25 10 0 
28 1 0 25 9 0 39 -5 0 
25 8 0 38 -5 0 34 -4 0 
26 4 0 32 -3 0 27 2 0 
37 -5 0 25 7 0 36 -5 0 
25 6 0 29 -1 0 30 -2 0 
28 -1.03621e-15 0 26 3 0 33 -4 0 
31 -3 0 25 5 0 35 -5 0 
27 1 0 40 -6 0 24 10 0 
39 -6 0 24 9 0 38 -6 0 
32 -4 0 26 2 0 24 8 0 
25 4 0 34 -5 0 29 -2 0 
37 -6 0 24 7 0 28 -1 0 
30 -3 0 27 -1.18424e-15 0 24 6 0 
36 -6 0 25 3 0 33 -5 0 
31 -4 0 26 1 0 24 5 0 
35 -6 0 28 -2 0 25 2 0 
23 10 0 32 -5 0 40 -7 0 
27 -1 0 29 -3 0 39 -7 0 
23 9 0 34 -6 0 24 4 0 
38 -7 0 23 8 0 30 -4 0 
26 -1.33227e-15 0 23 7 0 37 -7 0 
33 -6 0 36 -7 0 23 6 0 
24 3 0 31 -5 0 25 1 0 
28 -3 0 27 -2 0 35 -7 0 
23 5 0 29 -4 0 26 -1 0 
24 2 0 32 -6 0 22 10 0 
40 -8 0 34 -7 0 22 9 0 
23 4 0 30 -5 0 39 -8 0 
25 -1.33227e-15 0 38 -8 0 22 8 0 
22 7 0 37 -8 0 31 -6 0 
24 1 0 27 -3 0 23 3 0 
33 -7 0 26 -2 0 36 -8 0 
28 -4 0 22 6 0 25 -1 0 
29 -5 0 22 5 0 35 -8 0 
23 2 0 32 -7 0 30 -6 0 
24 -1.57898e-15 0 34 -8 0 22 4 0 
40 -9 0 21 10 0 39 -9 0 
21 9 0 26 -3 0 21 8 0 
38 -9 0 27 -4 0 28 -5 0 
25 -2 0 31 -7 0 37 -9 0 
21 7 0 23 1 0 33 -8 0 
22 3 0 24 -1 0 36 -9 0 
29 -6 0 21 6 0 21 5 0 
35 -9 0 22 2 0 32 -8 0 
30 -7 0 23 -1.67767e-15 0 26 -4 0 
25 -3 0 27 -5 0 21 4 0 
34 -9 0 24 -2 0 20 10 0 
28 -6 0 40 -10 0 39 -10 0 
20 9 0 38 -10 0 20 8 0 
31 -8 0 22 1 0 37 -10 0 
20 7 0 33 -9 0 23 -1 0 
21 3 0 29 -7 0 36 -10 0 
20 6 0 25 -4 0 26 -5 0 
30 -8 0 22 -1.77636e-15 0 32 -9 0 
20 5 0 21 2 0 27 -6 0 
24 -3 0 35 -10 0 23 -2 0 
28 -7 0 34 -10 0 20 4 0 
19 10 0 19 9 0 31 -9 0 
21 1 0 19 8 0 29 -8 0 
22 -1 0 20 3 0 33 -10 0 
25 -5 0 19 7 0 24 -4 0 
26 -6 0 19 6 0 23 -3 0 
27 -7 0 21 0 0 30 -9 0 
32 -10 0 20 2 0 19 5 0 
28 -8 0 22 -2 0 19 4 0 
20 1 0 31 -10 0 24 -5 0 
25 -6 0 21 -1 0 29 -9 0 
18 10 0 18 9 0 26 -7 0 
23 -4 0 18 8 0 19 3 0 
22 -3 0 18 7 0 27 -8 0 
18 6 0 20 0 0 30 -10 0 
28 -9 0 19 2 0 21 -2 0 
18 5 0 24 -6 0 25 -7 0 
23 -5 0 18 4 0 22 -4 0 
26 -8 0 20 -1 0 29 -10 0 
19 1 0 17 10 0 27 -9 0 
21 -3 0 17 9 0 17 8 0 
18 3 0 17 7 0 19 0 0 
28 -10 0 20 -2 0 17 6 0 
23 -6 0 24 -7 0 18 2 0 
25 -8 0 22 -5 0 17 5 0 
21 -4 0 26 -9 0 19 -1 0 
17 4 0 18 1 0 27 -10 0 
20 -3 0 16 10 0 16 9 0 
17 3 0 23 -7 0 16 8 0 
22 -6 0 24 -8 0 18 0 0 
16 7 0 19 -2 0 21 -5 0 
25 -9 0 16 6 0 17 2 0 
20 -4 0 26 -10 0 16 5 0 
18 -1 0 19 -3 0 17 1 0 
16 4 0 23 -8 0 22 -7 0 
21 -6 0 24 -9 0 16 3 0 
15 10 0 25 -10 0 20 -5 0 
15 9 0 18 -2 0 17 0 0 
15 8 0 15 7 0 19 -4 0 
16 2 0 15 6 0 22 -8 0 
17 -1 0 15 5 0 21 -7 0 
23 -9 0 18 -3 0 20 -6 0 
24 -10 0 16 1 0 15 4 0 
19 -5 0 17 -2 0 15 3 0 
14 10 0 16 -2.96059e-16 0 14 9 0 
18 -4 0 14 8 0 14 7 0 
21 -8 0 22 -9 0 15 2 0 
20 -7 0 23 -10 0 14 6 0 
19 -6 0 16 -1 0 17 -3 0 
14 5 0 15 1 0 18 -5 0 
14 4 0 16 -2 0 21 -9 0 
20 -8 0 22 -10 0 14 3 0 
15 -5.92119e-16 0 17 -4 0 13 10 0 
19 -7 0 13 9 0 13 8 0 
13 7 0 14 2 0 18 -6 0 
13 6 0 16 -3 0 15 -1 0 
13 5 0 17 -5 0 14 1 0 
20 -9 0 21 -10 0 19 -8 0 
13 4 0 15 -2 0 16 -4 0 
18 -7 0 14 -8.88178e-16 0 13 3 0 
12 10 0 12 9 0 17 -6 0 
12 8 0 13 2 0 12 7 0 
15 -3 0 14 -1 0 12 6 0 
20 -10 0 16 -5 0 19 -9 0 
18 -8 0 12 5 0 13 1 0 
17 -7 0 14 -2 0 12 4 0 
15 -4 0 13 -4.44089e-16 0 16 -6 0 
12 3 0 19 -10 0 11 10 0 
11 9 0 14 -3 0 11 8 0 
18 -9 0 12 2 0 15 -5 0 
13 -1 0 11 7 0 17 -8 0 
11 6 0 16 -7 0 12 1 0 
11 5 0 14 -4 0 13 -2 0 
11 4 0 15 -6 0 12 -8.88178e-16 0 
18 -10 0 17 -9 0 11 3 0 
13 -3 0 10 10 0 16 -8 0 
14 -5 0 10 9 0 10 8 0 
12 -1 0 11 2 0 10 7 0 
15 -7 0 10 6 0 11 1 0 
13 -4 0 10 5 0 12 -2 0 
17 -10 0 14 -6 0 10 4 0 
16 -9 0 11 -6.66134e-16 0 10 3 0 
15 -8 0 12 -3 0 13 -5 0 
9 10 0 11 -1 0 9 9 0 
10 2 0 9 8 0 14 -7 0 
9 7 0 16 -10 0 9 6 0 
12 -4 0 10 1 0 13 -6 0 
11 -2 0 9 5 0 15 -9 0 
9 4 0 10 -8.88178e-16 0 14 -8 0 
12 -5 0 9 3 0 11 -3 0 
13 -7 0 10 -1 0 8 10 0 
9 2 0 8 9 0 15 -10 0 
8 8 0 8 7 0 11 -4 0 
14 -9 0 8 6 0 12 -6 0 
9 1 0 10 -2 0 8 5 0 
13 -8 0 8 4 0 9 -8.88178e-16 0 
11 -5 0 10 -3 0 8 3 0 
12 -7 0 14 -10 0 9 -1 0 
8 2 0 7 10 0 13 -9 0 
7 9 0 7 8 0 10 -4 0 
11 -6 0 7 7 0 9 -2 0 
8 1 0 7 6 0 12 -8 0 
7 5 0 8 -1.11022e-15 0 10 -5 0 
7 4 0 13 -10 0 9 -3 0 
11 -7 0 7 3 0 12 -9 0 
8 -1 0 7 2 0 10 -6 0 
6 10 0 6 9 0 9 -4 0 
6 8 0 11 -8 0 6 7 0 
8 -2 0 7 1 0 6 6 0 
6 5 0 12 -10 0 9 -5 0 
7 -1.33227e-15 0 10 -7 0 6 4 0 
8 -3 0 11 -9 0 6 3 0 
7 -1 0 9 -6 0 8 -4 0 
6 2 0 10 -8 0 5 10 0 
5 9 0 5 8 0 7 -2 0 
5 7 0 6 1 0 5 6 0 
11 -10 0 8 -5 0 9 -7 0 
5 5 0 6 -1.55431e-15 0 7 -3 0 
10 -9 0 5 4 0 5 3 0 
6 -1 0 8 -6 0 9 -8 0 
7 -4 0 5 2 0 4 10 0 
4 9 0 4 8 0 10 -10 0 
6 -2 0 4 7 0 5 1 0 
4 6 0 8 -7 0 7 -5 0 
4 5 0 9 -9 0 6 -3 0 
5 -1.77636e-15 0 4 4 0 4 3 0 
7 -6 0 5 -1 0 8 -8 0 
6 -4 0 4 2 0 9 -10 0 
3 10 0 5 -2 0 3 9 0 
3 8 0 4 1 0 3 7 0 
7 -7 0 6 -5 0 3 6 0 
8 -9 0 3 5 0 5 -3 0 
4 -1.77636e-15 0 3 4 0 6 -6 0 
7 -8 0 4 -1 0 3 3 0 
5 -4 0 8 -10 0 3 2 0 
4 -2 0 2 10 0 6 -7 0 
2 9 0 2 8 0 3 1 0 
5 -5 0 7 -9 0 2 7 0 
2 6 0 4 -3 0 3 -1.77636e-15 0 
2 5 0 2 4 0 6 -8 0 
5 -6 0 7 -10 0 3 -1 0 
4 -4 0 2 3 0 2 2 0 
3 -2 0 5 -7 0 6 -9 0 
4 -5 0 1 10 0 1 9 0 
2 1 0 1 8 0 1 7 0 
1 6 0 3 -3 0 2 -1.77636e-15 0 
1 5 0 5 -8 0 4 -6 0 
6 -10 0 1 4 0 2 -1 0 
3 -4 0 1 3 0 1 2 0 
4 -7 0 5 -9 0 2 -2 0 
3 -5 0 0 10 0 0 9 0 
1 1 0 0 8 0 0 7 0 
2 -3 0 0 6 0 4 -8 0 
1 -1.66533e-15 0 5 -10 0 0 5 0 
3 -6 0 0 4 0 2 -4 0 
1 -1 0 0 3 0 4 -9 0 
3 -7 0 0 2 0 1 -2 0 
2 -5 0 0 1 0 -1 10 0 
-1 9 0 -1 8 0 -1 7 0 
1 -3 0 3 -8 0 4 -10 0 
-1 6 0 2 -6 0 0 -1.77636e-15 0 
-1 5 0 -1 4 0 1 -4 0 
0 -1 0 -1 3 0 3 -9 0 
2 -7 0 0 -2 0 -1 2 0 
1 -5 0 -1 1 0 -2 10 0 
-2 9 0 2 -8 0 -2 8 0 
0 -3 0 3 -10 0 -2 7 0 
1 -6 0 -2 6 0 -1 -1.77636e-15 0 
-2 5 0 0 -4 0 -2 4 0 
-1 -1 0 2 -9 0 1 -7 0 
-2 3 0 0 -5 0 -1 -2 0 
-2 2 0 2 -10 0 -2 1 0 
1 -8 0 -3 10 0 -1 -3 0 
-3 9 0 -3 8 0 0 -6 0 
-3 7 0 -2 -1.77636e-15 0 -3 6 0 
-3 5 0 -1 -4 0 1 -9 0 
-3 4 0 -2 -1 0 0 -7 0 
-3 3 0 -1 -5 0 -2 -2 0 
-3 2 0 1 -10 0 0 -8 0 
-3 1 0 -2 -3 0 -4 10 0 
-1 -6 0 -4 9 0 -4 8 0 
-4 7 0 -3 -1.77636e-15 0 -4 6 0 
-2 -4 0 -4 5 0 0 -9 0 
-3 -1 0 -1 -7 0 -4 4 0 
-4 3 0 -2 -5 0 -3 -2 0 
0 -10 0 -4 2 0 -1 -8 0 
-4 1 0 -3 -3 0 -2 -6 0 
-5 10 0 -5 9 0 -5 8 0 
-5 7 0 -4 0 0 -5 6 0 
-1 -9 0 -3 -4 0 -5 5 0 
-2 -7 0 -4 -1 0 -5 4 0 
-3 -5 0 -5 3 0 -4 -2 0 
-1 -10 0 -2 -8 0 -5 2 0 
-4 -3 0 -3 -6 0 -5 1 0 
-6 10 0 -6 9 0 -6 8 0 
-5 0 0 -6 7 0 -2 -9 0 
-6 6 0 -4 -4 0 -3 -7 0 
-6 5 0 -5 -1 0 -6 4 0 
-4 -5 0 -2 -10 0 -6 3 0 
-5 -2 0 -3 -8 0 -6 2 0 
-4 -6 0 -5 -3 0 -6 1 0 
-7 10 0 -7 9 0 -3 -9 0 
-7 8 0 -6 0 0 -7 7 0 
-5 -4 0 -7 6 0 -4 -7 0 
-7 5 0 -6 -1 0 -7 4 0 
-3 -10 0 -5 -5 0 -7 3 0 
-4 -8 0 -6 -2 0 -7 2 0 
-5 -6 0 -6 -3 0 -7 1 0 
-4 -9 0 -8 10 0 -8 9 0 
-8 8 0 -7 0 0 -6 -4 0 
-8 7 0 -5 -7 0 -8 6 0 
-8 5 0 -7 -1 0 -4 -10 0 
-8 4 0 -6 -5 0 -5 -8 0 
-8 3 0 -7 -2 0 -8 2 0 
-6 -6 0 -7 -3 0 -8 1 0 
-5 -9 0 -9 10 0 -9 9 0 
-8 0 0 -7 -4 0 -9 8 0 
-6 -7 0 -9 7 0 -9 6 0 
-8 -1 0 -5 -10 0 -9 5 0 
-7 -5 0 -9 4 0 -6 -8 0 
-8 -2 0 -9 3 0 -9 2 0 
-7 -6 0 -8 -3 0 -6 -9 0 
-9 1 0 -7 -7 0 -10 10 0 
-8 -4 0 -10 9 0 -9 0 0 
-10 8 0 -10 7 0 -10 6 0 
-6 -10 0 -9 -1 0 -10 5 0 
-8 -5 0 -7 -8 0 -10 4 0 
-9 -2 0 -10 3 0 -8 -6 0 
-10 2 0 -9 -3 0 -7 -9 0 
-10 1 0 -8 -7 0 -9 -4 0 
-10 0 0 -7 -10 0 -10 -1 0 
-9 -5 0 -8 -8 0 -10 -2 0 
-9 -6 0 -8 -9 0 -10 -3 0 
-9 -7 0 -10 -4 0 -8 -10 0 
-9 -8 0 -10 -5 0 -10 -6 0 
-9 -9 0 -10 -7 0 -9 -10 0 
-10 -8 0 -10 -9 0 -10 -10 0 

POLYGONS 2000 8000
3 1030 1007 1028 
3 1028 1007 1006 
3 1007 986 1006 
3 1006 986 985 
3 986 964 985 
3 985 964 963 
3 964 943 963 
3 963 943 942 
3 1070 1065 1069 
3 1067 1065 1070 
3 1067 1057 1065 
3 1061 1057 1067 
3 1061 1046 1057 
3 1051 1046 1061 
3 1051 1025 1046 
3 1035 1025 1051 
3 1032 1010 1030 
3 1030 1010 1007 
3 1010 987 1007 
3 1007 987 986 
3 987 966 986 
3 986 966 964 
3 966 944 964 
3 964 944 943 
3 1033 1012 1032 
3 1032 1012 1010 
3 1012 990 1010 
3 1010 990 987 
3 990 968 987 
3 987 968 966 
3 968 946 966 
3 966 946 944 
3 1034 1013 1033 
3 1033 1013 1012 
3 1013 992 1012 
3 1012 992 990 
3 992 970 990 
3 990 970 968 
3 970 948 968 
3 968 948 946 
3 1037 1016 1034 
3 1034 1016 1013 
3 1016 993 1013 
3 1013 993 992 
3 993 972 992 
3 992 972 970 
3 972 951 970 
3 970 951 948 
3 1040 1018 1037 
3 1037 1018 1016 
3 1018 996 1016 
3 1016 996 993 
3 996 974 993 
3 993 974 972 
3 974 953 972 
3 972 953 951 
3 1042 1021 1040 
3 1040 1021 1018 
3 1021 999 1018 
3 1018 999 996 
3 999 977 996 
3 996 977 974 
3 977 956 974 
3 974 956 953 
3 1044 1022 1042 
3 1042 1022 1021 
3 1022 1001 1021 
3 1021 1001 999 
3 1001 980 999 
3 999 980 977 
3 980 959 977 
3 977 959 956 
3 1047 1026 1044 
3 1044 1026 1022 
3 1026 1004 1022 
[...]
POINT_DATA 1071
FIELD FieldData 2
PRESSURE 1 1071 float
0 0.00750206 0 0.00641455 0 0.017901 0.0158104 0.00714594 0.0185741 
0 0.0295634 0.0267166 0.000383476 0.0120288 0.03243 0 0.0398357 0.0360613 
-0.0115392 0.0301918 0.0445096 -0.00559237 0.047841 0 0.0459343 0.0130828 -0.0111585 
0.0408318 0.0515041 -0.00169243 0.0359461 0.0600477 0.0225163 0.0453891 0 -0.0208486 
0.0382981 -0.0107886 0.0500889 0.0523537 0.0555445 0.0618771 0.0175031 0.0363761 0 
0.0784941 0.0267584 -0.0155709 0.0517622 0.0648321 0.0380198 -0.00206367 0.0499643 0.0296275 
0.0810904 0.0920854 0 0.0187443 0.0667547 0.00639503 -0.000738449 0.058718 0.0152984 
0.0184352 0.0959822 0.0485408 0.0237692 0.0864533 0.0977507 0.0808831 0.0353574 0 
-0.0054946 -0.0203171 0.00968582 0.112679 -0.0153006 0.0892078 0.0267129 0.105992 0.0587382 
-0.0136856 0.051557 -0.00278719 0.0773145 0.10354 0 0.115093 -0.0321882 0.057334 
-0.0487111 0.00434308 -0.0482485 0.0160909 0.0114739 0.0969651 -0.0556802 0.0360449 0.100385 
0.0659462 0.0600628 -0.0485167 0.00286772 0.103225 -0.055653 0 -0.0726494 0.00968582 
-0.0760675 -0.0466196 0.0267129 0.0830189 0.0574063 0.051557 0.00254978 -0.0927406 0.0884876 
0.0975793 -0.0641089 0.0773145 -0.0908483 0 -0.0698591 -0.000738449 -0.0101872 -0.0858642 
0.0479832 -0.101709 0.0969651 0.0184352 -0.0909699 -0.0740662 0.0938686 0.0485408 -0.114784 
-0.126748 0.103225 0.0808831 -0.117629 -0.0142977 -0.0873547 0.0639134 0 -0.0699883 
0.105992 -0.138228 -0.142813 -0.0155709 -0.0836695 0.0884876 -0.0870152 -0.00206367 0.0296275 
-0.114004 0.115093 -0.165892 0.00937817 -0.0825463 -0.15099 -0.119171 0.0479832 0.0667547 
-0.181344 0.100385 -0.143681 0.0977507 0 -0.0539787 -0.0645824 -0.0208486 -0.0548684 
-0.0107886 -0.0621525 -0.0142977 -0.134324 0.0175031 0.112679 -0.0875529 -0.166939 0.0574063 
-0.179915 0.0517622 -0.0915757 -0.175638 0.10354 -0.0825463 -0.113025 0.0810904 -0.106919 
-0.0101872 0 -0.0235878 -0.152004 -0.0313213 -0.0111585 -0.0194509 -0.00169243 0.0959822 
-0.125785 0.0659462 -0.165098 0.0225163 -0.0390767 0.0523537 -0.0385501 -0.134324 -0.0873547 
-0.130025 -0.126031 0.0892078 0.00254978 -0.0509333 0.0784941 -0.131993 0 0.0154003 
-0.0115392 0.0091971 -0.00559237 0.057334 -0.113121 0.0329322 -0.0509762 0.0920854 -0.15099 
0.0130828 0.0214283 -0.152004 -0.0740662 -0.121034 0.0288309 0.0359461 -0.0466575 0.0864533 
0.00286772 -0.0849428 0.0286532 0.0555445 -0.179915 -0.0414959 0.053963 0.0587382 0 
-0.131993 -0.142813 0.000383476 0.0469383 0.0648321 0.0384755 0.0120288 0.0830914 -0.0641089 
-0.0887659 0.079389 0.0301918 0.058718 0.047841 0.094168 0.0401515 0.0114739 -0.0277313 
-0.181344 -0.165098 0.0600477 0.105266 -0.126748 -0.0849428 0.0296104 0.0353574 0.0814804 
0 0.0618771 0.0706695 0.118046 -0.0466196 0.00714594 -0.0450928 0.0185741 0.117702 
0.118617 0.03243 -0.00278719 0.0253895 -0.175638 0.11048 0.0499643 -0.113121 0.0445096 
-0.165892 0.139041 -0.0277313 -0.101709 0.156217 0.0515041 0.0828344 0.0237692 -0.0485167 
0.00178361 0.0500889 0.163494 0 0.0878539 0.00641455 0.0702568 -0.126031 0.12479 
0.0158104 -0.166939 -0.138228 -0.0414959 -0.0136856 0.0267166 0.124803 0.0645356 0.0380198 
0.143387 0.0253895 0.0360613 -0.0908483 0.146972 0.161808 0.0408318 0.10352 0.0152984 
-0.0556802 0.0445673 -0.125785 -0.0466575 -0.143681 0.156233 0.0382981 0.0296104 0.0656076 
-0.117629 0 0.00750206 0.0387995 0.017901 0.0963035 -0.0153006 0.0789459 0.0295634 
0.0887521 0.0267584 0.0645356 0.123501 -0.0927406 0.0398357 0.107323 -0.0509762 -0.113025 
-0.0482485 0.0693571 0.00639503 0.110471 0.0785427 -0.119171 0.0401515 0.0459343 0.0828344 
-0.114784 0.0453891 0.0876724 0.0114889 -0.0258887 -0.0203171 0.0547553 0.0298603 -0.0760675 
0.0789459 0.0440719 0.0363761 -0.0509333 0.00853221 0.0384755 -0.0915757 0.0180748 0.11048 
-0.114004 0.0567061 -0.0487111 0.0187443 0.000393057 0.0021364 -0.0909699 0.10352 -0.0382335 
-0.0175237 -0.0054946 0.0286532 -0.0385501 0.0547553 -0.0726494 -0.0727799 -0.120761 -0.0875529 
0.118046 -0.0707487 -0.0893306 0.143387 -0.110144 -0.0870152 -0.113611 -0.00588837 -0.0321882 
-0.0858642 -0.125921 0.0785427 -0.151746 0.0288309 -0.0390767 0.105266 -0.205593 0.163494 
-0.0621525 -0.0175237 -0.055653 -0.133707 -0.18071 -0.0836695 0.123501 -0.238018 -0.196338 
-0.258425 -0.255296 -0.113779 -0.0698591 0.000393057 -0.273185 0.094168 0.0214283 -0.281795 
-0.0194509 0.156217 -0.331349 0.156233 -0.0645824 -0.133707 -0.390528 -0.275547 -0.0699883 
0.0440719 -0.302064 -0.366333 -0.436949 0.079389 -0.333949 0.139041 0.0329322 -0.24755 
-0.410994 -0.125921 0.161808 -0.0313213 -0.441606 -0.440988 0.0876724 -0.0539787 -0.512637 
-0.275547 -0.0893306 -0.417691 -0.566107 0.0830914 0.118617 0.146972 0.0091971 -0.596561 
-0.424375 -0.0235878 0.110471 -0.492467 -0.281795 -0.382309 -0.468714 -0.559599 -0.0382335 
-0.576188 -0.597889 0.117702 -0.417691 -0.670551 0.124803 0.0469383 -0.258425 0.107323 
0.0154003 -0.534643 -0.705895 0.0021364 -0.440988 -0.710877 -0.534681 -0.494863 -0.603001 
-0.205593 -0.585669 -0.683588 0.12479 0.0706695 -0.66381 0.0887521 0.053963 -0.72107 
0.0180748 -0.534643 -0.436949 -0.781502 -0.606374 -0.151746 -0.787173 -0.576188 0.0702568 
0.0963035 0.0814804 -0.76011 -0.568243 -0.390528 -0.621339 0.00853221 -0.686153 -0.67164 
-0.7675 -0.69004 -0.113611 -0.792774 -0.596561 -0.606374 -0.827104 -0.331349 -0.624522 
0.0387995 0.0878539 0.0298603 -0.796244 -0.66381 -0.566107 -0.110144 -0.596326 -0.738131 
-0.675869 -0.733713 -0.273185 -0.71747 -0.657334 -0.800694 -0.710877 -0.624522 -0.801366 
0.0656076 -0.512637 -0.0258887 -0.0707487 -0.799804 -0.596317 -0.255296 -0.69004 -0.734567 
-0.705895 -0.585969 -0.441606 -0.657143 0.0114889 -0.694645 -0.742915 -0.76011 -0.720437 
-0.120761 -0.58442 -0.670551 -0.596317 -0.780791 -0.196338 -0.747113 -0.410994 -0.540291 
-0.708027 -0.787173 -0.657334 -0.620845 -0.597889 -0.551359 -0.0727799 -0.238018 -0.543793 
-0.738131 -0.679994 -0.333949 -0.781502 -0.717653 -0.686037 -0.540291 -0.496327 -0.716575 
-0.559599 -0.645936 -0.474545 -0.796244 -0.577313 -0.58442 -0.18071 -0.72107 -0.486631 
-0.366333 -0.502018 -0.428687 -0.468714 -0.657143 -0.827104 -0.640008 -0.474545 -0.668147 
-0.412452 -0.627794 -0.683588 -0.628246 -0.302064 -0.528485 -0.734567 -0.408013 -0.792774 
-0.496327 -0.445748 -0.492467 -0.368795 -0.435962 -0.585669 -0.799804 -0.338816 -0.543793 
-0.7675 -0.408013 -0.58646 -0.345004 -0.608282 -0.424375 -0.563855 -0.542921 -0.620845 
-0.603001 -0.432247 -0.801366 -0.345457 -0.412452 -0.35435 -0.67164 -0.302425 -0.352714 
-0.708027 -0.428687 -0.297095 -0.800694 -0.534681 -0.345457 -0.308801 -0.530789 -0.686153 
-0.550647 -0.510305 -0.486631 -0.747113 -0.484739 -0.345004 -0.303954 -0.387323 -0.71747 
-0.333047 -0.280788 -0.577313 -0.310762 -0.621339 -0.338816 -0.780791 -0.320115 -0.733713 
-0.303954 -0.325078 -0.645936 -0.479228 -0.500741 -0.368795 -0.473208 -0.720437 -0.462375 
-0.308801 -0.314261 -0.400418 -0.38331 -0.675869 -0.445748 -0.271927 -0.716575 -0.388189 
-0.297095 -0.742915 -0.403242 -0.314261 -0.528485 -0.302425 -0.398582 -0.686037 -0.429235 
-0.453164 -0.443568 -0.325078 -0.460797 -0.38184 -0.445215 -0.694645 -0.35435 -0.628246 
-0.466429 -0.337808 -0.320115 -0.717653 -0.488313 -0.503273 -0.38184 -0.432247 -0.627794 
-0.310762 -0.487559 -0.369676 -0.392755 -0.399464 -0.679994 -0.398582 -0.44458 -0.454919 
-0.468994 -0.542921 -0.333047 -0.514744 -0.668147 -0.403242 -0.416166 -0.539802 -0.551332 
-0.387323 -0.454919 -0.563855 -0.388189 -0.523356 -0.640008 -0.285893 -0.487559 -0.301642 
-0.31616 -0.466905 -0.374068 -0.484739 -0.38331 -0.418066 -0.608282 -0.468222 -0.503273 
-0.431711 -0.48808 -0.400418 -0.510305 -0.466905 -0.500246 -0.488313 -0.58646 -0.469309 
-0.523356 -0.16822 -0.462375 -0.169733 -0.179604 -0.39887 -0.466429 -0.550647 -0.226386 
-0.267509 -0.551332 -0.363066 -0.308824 -0.327464 -0.473208 -0.445215 -0.530789 -0.39887 
-0.539802 -0.356113 -0.340982 -0.469309 -0.460797 -0.500741 -0.514744 -0.0204048 -0.00387467 
-0.278917 0.00360322 -0.00975795 -0.0344638 -0.500246 -0.240177 -0.0662197 -0.443568 -0.468994 
-0.479228 -0.0974041 -0.278917 -0.48808 -0.15971 -0.176284 -0.44458 -0.453164 -0.340982 
-0.468222 0.135561 0.168168 -0.146844 0.203037 0.233928 -0.356113 0.227825 -0.399464 
-0.111166 -0.429235 0.199002 -0.418066 0.144985 -0.327464 -0.146844 0.048065 -0.392755 
-0.374068 -0.011056 -0.176284 -0.308824 -0.0342077 0.259773 0.299647 0.365673 0.434143 
-0.15971 -0.31616 -0.369676 0.440219 -0.267509 -0.0168956 0.410543 0.341418 -0.0974041 
-0.0342077 0.226341 -0.301642 -0.226386 -0.011056 0.121981 -0.0662197 0.0434165 0.299817 
0.331513 -0.179604 0.418763 0.048065 -0.285893 0.498449 -0.0344638 0.503657 0.0219576 
0.477788 0.144985 0.420283 0.0434165 -0.169733 -0.00975795 0.316806 0.199002 0.121981 
0.19554 -0.16822 0.0847813 0.00360322 0.202124 0.226341 0.204719 0.280643 0.227825 
0.327364 0.00160274 0.315942 0.311011 0.341418 -0.00387467 0.30594 0.0847813 0.233928 
0.264144 0.410543 0.19554 0.189605 -0.0204048 0.203037 0.0948019 0.316806 -0.0663556 
0.440219 -0.114479 -0.101555 -0.132341 -0.0534901 -0.157665 0.420283 -0.103805 0.168168 
0.0948019 0.434143 -0.013659 0.0521764 0.477788 0.189605 0.135561 0.0826851 0.365673 
0.0836431 0.264144 0.503657 -0.482505 -0.587999 -0.67237 -0.775031 -0.05455 -0.767413 
0.299647 0.30594 -0.624215 0.498449 0.0836431 -0.427813 0.311011 -0.24668 0.0826851 
0.259773 0.418763 -0.105723 0.0521764 0.315942 0.0612031 -0.936193 -1.06493 -1.20762 
0.128044 -1.29877 0.331513 -1.22501 -0.013659 0.327364 -1.0305 0.0612031 -0.753006 
-0.103805 0.299817 -0.472004 -0.105723 0.280643 -0.286522 -0.157665 -0.24668 -0.054074 
-1.26041 -1.33248 0.204719 -1.42605 0.384472 -1.45282 -0.427813 -1.39287 -0.132341 
-1.23836 -0.054074 -0.90643 0.202124 -0.624215 -0.464728 -0.101555 -0.286522 -0.333112 
-0.767413 -0.472004 -0.573119 -0.114479 -1.35218 -1.30849 -1.29628 -0.116434 -0.753006 
-1.32834 -0.775031 -1.38345 -1.38831 -0.573119 -0.0663556 -1.18125 -1.0305 -0.67237 
-0.366986 -0.333112 -0.234484 -1.22501 -0.464728 -1.64395 -0.587999 -1.27115 -1.17841 
-2.11396 -0.90643 -1.1478 -1.29877 -1.22118 -1.41218 -1.64395 -0.482505 -1.74098 
-1.23836 -2.15015 -1.20762 -0.234484 -0.330797 1.30433 -1.39287 -0.366986 -1.06493 
-1.55413 -1.45282 -1.20521 -1.18125 -1.11944 -6.06832 -1.09992 -1.18328 -1.55605 
-0.936193 -1.55413 -3.06528 -1.38831 -1.42605 -3.34322 1.30433 1.34446 -1.38345 
3.2561 -0.330797 -1.33248 -3.43529 -1.32834 -2.15015 -8.16485 -1.26041 -3.43529 
-1.74098 -1.29628 3.2561 -1.41218 -1.30849 1.34446 -1.22118 -3.34322 -1.35218 
-1.1478 -3.06528 -1.55605 -1.17841 -1.18328 -1.27115 -1.09992 -1.11944 -1.20521 

VELOCITY 3 1071 float
0 0 0 0 0 0 2.46652 -0.00052256 0 
2.4675 -0.000564087 0 2.02308 -0.00123034 0 0 0 0 
2.46688 0.000689958 0 2.02211 -0.00106737 0 2.0243 -0.000240542 0 
3.89488 0.00182399 0 0 0 0 2.46457 0.00190679 0 
3.88507 0.00136163 0 3.88113 -0.00127653 0 2.02737 0.00297538 0 
4.71478 0.0146876 0 0 0 0 2.45906 0.0037177 0 
4.70315 0.00949399 0 3.88216 -0.000365218 0 2.02956 0.00770286 0 
4.69882 0.00137588 0 3.88803 0.00231754 0 5.53342 0.0263105 0 
0 0 0 4.70176 -0.00354653 0 5.53638 0.00902947 0 
2.44985 0.00569915 0 2.03044 0.0128918 0 5.55521 -0.0105848 0 
4.7111 -0.00610418 0 3.89775 0.00635455 0 5.58561 -0.024198 0 
0 0 0 6.21554 0.0210676 0 6.22934 -0.00897873 0 
2.43675 0.00773373 0 6.25402 -0.03996 0 2.0297 0.0181496 0 
5.62191 -0.0319387 0 4.72507 -0.00565726 0 3.90985 0.0111703 0 
6.28374 -0.0589103 0 0 0 0 6.68531 0.00745931 0 
5.65778 -0.0322734 0 2.41986 0.0095588 0 6.70653 -0.0309858 0 
6.31027 -0.0642864 0 4.74107 -0.00245086 0 2.02751 0.022638 0 
6.72724 -0.0645874 0 3.92289 0.0156305 0 6.74216 -0.0793056 0 
6.32474 -0.0542636 0 5.68651 -0.0249778 0 7.1264 -0.0143107 0 
0 0 0 6.74537 -0.0725699 0 2.39984 0.0108311 0 
7.14278 -0.0495211 0 4.75607 0.00246335 0 2.02451 0.0254791 0 
7.14756 -0.0749368 0 6.31954 -0.0294535 0 7.13951 -0.0780624 0 
3.93566 0.0185134 0 5.70176 -0.0112759 0 6.73225 -0.0440361 0 
7.12048 -0.0580354 0 4.76712 0.00757687 0 7.45068 -0.0270987 0 
0 0 0 2.37793 0.0112767 0 7.43442 -0.0440231 0 
6.70137 0.00235617 0 2.02178 0.025922 0 6.29031 0.00630692 0 
7.4006 -0.0543944 0 7.09495 -0.0174478 0 5.69897 0.00598421 0 
3.94736 0.0186352 0 7.35797 -0.0488803 0 4.77215 0.0110052 0 
7.31909 -0.0285502 0 6.65627 0.0573633 0 7.53231 2.12841e-15 0 
7.06996 0.0360349 0 0 0 0 6.2381 0.0454153 0 
2.35583 0.0107503 0 7.4866 4.5718e-15 0 2.02077 0.023498 0 
7.42525 4.38692e-15 0 5.67721 0.0222886 0 7.29626 0.0031131 0 
3.95778 0.0150966 0 7.36792 3.1655e-16 0 7.05426 0.0893708 0 
6.60612 0.10689 0 7.33172 -2.31205e-15 0 4.77059 0.0108153 0 
6.17078 0.0773626 0 7.29927 0.0390977 0 0 0 0 
7.45068 0.0270987 0 2.3354 0.00929691 0 7.43442 0.0440231 0 
2.0232 0.018209 0 5.64034 0.0323694 0 7.4006 0.0543944 0 
7.32984 -3.57121e-15 0 7.05622 0.126444 0 7.35797 0.0488803 0 
6.56414 0.13533 0 3.96735 0.00759973 0 7.33241 0.069431 0 
7.36801 -5.13762e-15 0 6.10186 0.0917946 0 7.31909 0.0285502 0 
4.76376 0.00565353 0 7.1264 0.0143107 0 0 0 0 
7.14278 0.0495211 0 7.08053 0.133302 0 2.31838 0.00718883 0 
7.39173 0.0838099 0 5.59643 0.0320762 0 7.29626 -0.0031131 0 
7.14756 0.0749368 0 2.03072 0.0106574 0 6.54357 0.131263 0 
7.44106 -7.0077e-15 0 7.13951 0.0780624 0 3.97696 -0.00326741 0 
6.04684 0.0826286 0 7.29927 -0.0390977 0 7.12048 0.0580354 0 
4.75443 -0.00450355 0 7.46436 0.0755984 0 7.12534 0.104054 0 
7.53218 -4.78454e-15 0 6.68531 -0.00745931 0 0 0 0 
7.09495 0.0174478 0 5.55543 0.0203365 0 6.5529 0.0924813 0 
6.70653 0.0309858 0 2.30589 0.00490968 0 7.33241 -0.069431 0 
2.04463 0.00205211 0 6.72724 0.0645874 0 6.74216 0.0793056 0 
3.98755 -0.0159157 0 7.06996 -0.0360349 0 6.01845 0.0508706 0 
7.61663 2.94313e-15 0 7.53135 0.0449326 0 7.18196 0.043836 0 
4.74567 -0.0178802 0 7.39173 -0.0838099 0 6.74537 0.0725699 0 
6.59289 0.0273285 0 7.05426 -0.0893708 0 5.52609 1.68839e-05 0 
6.73225 0.0440361 0 6.21554 -0.0210676 0 0 0 0 
2.29811 0.00307746 0 6.22934 0.00897873 0 7.66922 6.00967e-15 0 
6.25402 0.03996 0 2.06545 -0.00594797 0 7.46436 -0.0755984 0 
7.57334 -0.00102246 0 6.28374 0.0589103 0 6.70137 -0.00235617 0 
3.99956 -0.0279166 0 6.02302 0.00451869 0 7.05622 -0.126444 0 
7.23725 -0.0327353 0 6.31027 0.0642864 0 4.73961 -0.0310664 0 
6.65637 -0.0479965 0 6.65627 -0.0573633 0 7.53135 -0.0449326 0 
5.51366 -0.0228379 0 6.32474 0.0542636 0 7.67224 9.97001e-15 0 
7.08053 -0.133302 0 5.53342 -0.0263105 0 0 0 0 
7.57657 -0.0504759 0 2.29404 0.00231866 0 5.53638 -0.00902947 0 
2.09271 -0.0115394 0 5.55521 0.0105848 0 6.31954 0.0294535 0 
6.05908 -0.0440197 0 6.60612 -0.10689 0 7.27755 -0.106047 0 
5.58561 0.024198 0 4.01245 -0.03645 0 5.62191 0.0319387 0 
4.73662 -0.0398377 0 7.57334 0.00102246 0 7.12534 -0.104054 0 
7.62085 1.07869e-14 0 6.73006 -0.114008 0 6.29031 -0.00630692 0 
6.56414 -0.13533 0 5.51879 -0.0408766 0 5.65778 0.0322734 0 
7.53705 -0.0902927 0 4.71478 -0.0146876 0 0 0 0 
4.70315 -0.00949399 0 2.29146 0.00312686 0 4.69882 -0.00137588 0 
6.2381 -0.0454153 0 7.29216 -0.156269 0 2.12487 -0.0131561 0 
6.11779 -0.0812665 0 5.68651 0.0249778 0 7.18196 -0.043836 0 
4.70176 0.00354653 0 4.02451 -0.0389336 0 7.57657 0.0504759 0 
6.54357 -0.131263 0 7.52467 8.44368e-15 0 4.73517 -0.0403189 0 
4.7111 0.00610418 0 6.79727 -0.152249 0 5.70176 0.0112759 0 
6.17078 -0.0773626 0 7.4619 -0.108864 0 5.53774 -0.0474411 0 
4.72507 0.00565726 0 7.23725 0.0327353 0 7.27586 -0.16752 0 
0 0 0 5.69897 -0.00598421 0 3.89488 -0.00182399 0 
7.53705 0.0902927 0 6.5529 -0.0924813 0 3.88507 -0.00136163 0 
2.28723 0.00574465 0 4.74107 0.00245086 0 6.18441 -0.0955184 0 
3.88113 0.00127653 0 2.15952 -0.00983118 0 6.10186 -0.0917946 0 
7.40622 7.2206e-15 0 4.03306 -0.0336623 0 3.88216 0.000365218 0 
4.75607 -0.00246335 0 3.88803 -0.00231754 0 4.73244 -0.0300658 0 
6.84121 -0.149195 0 5.67721 -0.0222886 0 7.36843 -0.0988123 0 
6.59289 -0.0273285 0 7.27755 0.106047 0 3.89775 -0.00635455 0 
5.56307 -0.038058 0 6.04684 -0.0826286 0 7.4619 0.108864 0 
7.23101 -0.132335 0 4.76712 -0.00757687 0 0 0 0 
2.02308 0.00123034 0 3.90985 -0.0111703 0 2.27781 0.0100988 0 
6.24091 -0.0793488 0 5.64034 -0.0323694 0 2.02211 0.00106737 0 
7.29649 9.58279e-15 0 2.0243 0.000240542 0 2.19374 -0.00144261 0 
4.03496 -0.0202842 0 2.02737 -0.00297538 0 4.77215 -0.0110052 0 
7.28104 -0.0600999 0 6.65637 0.0479965 0 6.84981 -0.100709 0 
3.92289 -0.0156305 0 7.29216 0.156269 0 2.02956 -0.00770286 0 
6.01845 -0.0508706 0 4.72504 -0.00875581 0 7.36843 0.0988123 0 
5.59643 -0.0320762 0 5.58503 -0.0114494 0 2.03044 -0.0128918 0 
7.16911 -0.0564303 0 3.93566 -0.0185134 0 4.77059 -0.0108153 0 
7.22709 7.61981e-15 0 2.0297 -0.0181496 0 6.27083 -0.0324034 0 
2.46652 0.00052256 0 0 0 0 2.4675 0.000564087 0 
2.25982 0.0158032 0 6.73006 0.114008 0 2.22464 0.0112245 0 
2.46688 -0.000689958 0 6.02302 -0.00451869 0 5.55543 -0.0203365 0 
7.27586 0.16752 0 3.94736 -0.0186352 0 2.46457 -0.00190679 0 
4.02729 2.48944e-05 0 7.22528 -0.00229515 0 2.02751 -0.022638 0 
6.82163 -0.0162486 0 7.28104 0.0600999 0 2.45906 -0.0037177 0 
4.76376 -0.00565353 0 4.7099 0.0216322 0 5.59404 0.0296882 0 
2.44985 -0.00569915 0 7.10962 0.0397181 0 2.02451 -0.0254791 0 
3.95778 -0.0150966 0 7.2199 3.36407e-15 0 6.05908 0.0440197 0 
6.79727 0.152249 0 5.52609 -1.68839e-05 0 6.26583 0.0363531 0 
2.43675 -0.00773373 0 7.23101 0.132335 0 0 0 0 
4.75443 0.00450355 0 0 0 0 0 0 0 
2.23068 0.0222291 0 0 0 0 2.24987 0.026624 0 
2.02178 -0.025922 0 7.21935 0.0572294 0 0 0 0 
4.00811 0.0247573 0 2.41986 -0.0095588 0 7.22528 0.00229515 0 
6.76897 0.0812752 0 3.96735 -0.00759973 0 0 0 0 
4.6852 0.0571327 0 6.11779 0.0812665 0 5.51366 0.0228379 0 
2.02077 -0.023498 0 7.27812 1.37279e-15 0 2.39984 -0.0108311 0 
5.58437 0.0784456 0 7.0738 0.127145 0 4.74567 0.0178802 0 
6.84121 0.149195 0 0 0 0 7.16911 0.0564303 0 
3.97696 0.00326741 0 0 0 0 6.23049 0.109699 0 
0 0 0 2.18907 0.0286254 0 2.37793 -0.0112767 0 
7.26645 0.100624 0 2.26805 0.0427692 0 2.0232 -0.018209 0 
7.21935 -0.0572294 0 6.71403 0.163485 0 0 0 0 
5.51879 0.0408766 0 3.97697 0.0505995 0 6.18441 0.0955184 0 
4.73961 0.0310664 0 4.65123 0.0925294 0 6.84981 0.100709 0 
3.98755 0.0159157 0 7.38504 1.52923e-15 0 2.35583 -0.0107503 0 
0 0 0 7.07517 0.181453 0 5.55729 0.124899 0 
2.03072 -0.0106574 0 7.10962 -0.0397181 0 6.18112 0.168057 0 
7.35337 0.118153 0 0 0 0 5.53774 0.0474411 0 
4.73662 0.0398377 0 7.26645 -0.100624 0 2.3354 -0.00929691 0 
0 0 0 2.13512 0.0342575 0 3.99956 0.0279166 0 
6.24091 0.0793488 0 2.27897 0.0576274 0 6.6786 0.208913 0 
6.82163 0.0162486 0 3.93517 0.0741083 0 2.04463 -0.00205211 0 
4.61108 0.122372 0 7.51262 2.22861e-15 0 0 0 0 
2.31838 -0.00718883 0 7.11323 0.193265 0 7.0738 -0.127145 0 
5.52126 0.158901 0 4.73517 0.0403189 0 4.01245 0.03645 0 
5.56307 0.038058 0 6.13837 0.197011 0 6.27083 0.0324034 0 
2.06545 0.00594797 0 7.35337 -0.118153 0 0 0 0 
7.4572 0.110892 0 0 0 0 2.30589 -0.00490968 0 
6.76897 -0.0812752 0 2.07033 0.038525 0 2.28352 0.069456 0 
6.67458 0.210302 0 3.88563 0.092285 0 7.63369 1.16304e-15 0 
0 0 0 7.07517 -0.181453 0 4.57037 0.141959 0 
4.73244 0.0300658 0 4.02451 0.0389336 0 7.17544 0.167457 0 
2.09271 0.0115394 0 5.58503 0.0114494 0 5.48893 0.172885 0 
6.26583 -0.0363531 0 2.29811 -0.00307746 0 7.4572 -0.110892 0 
6.11909 0.190747 0 7.55514 0.0856633 0 0 0 0 
6.71403 -0.163485 0 0 0 0 1.99735 0.041027 0 
6.70195 0.171674 0 4.03306 0.0336623 0 2.28353 0.0769827 0 
4.72504 0.00875581 0 2.12487 0.0131561 0 7.72886 1.8226e-15 0 
3.83259 0.102866 0 7.11323 -0.193265 0 5.59404 -0.0296882 0 
2.29404 -0.00231866 0 4.53638 0.14786 0 7.24502 0.113767 0 
6.23049 -0.109699 0 0 0 0 5.4733 0.162799 0 
7.55514 -0.0856633 0 6.6786 -0.208913 0 7.63022 0.0482065 0 
6.13281 0.149927 0 2.15952 0.00983118 0 4.03496 0.0202842 0 
4.7099 -0.0216322 0 2.29146 -0.00312686 0 6.75349 0.100622 0 
0 0 0 0 0 0 5.58437 -0.0784456 0 
1.91958 0.0415787 0 7.17544 -0.167457 0 7.78544 2.24636e-16 0 
2.28151 0.0794381 0 3.78121 0.104355 0 6.18112 -0.168057 0 